# vtk DataFile Version 1.0 
PolyMesh 
ASCII 
 
DATASET POLYDATA 
 
POINTS 7926 float 
6.294911e+01 1.182864e+00 0.000000e+00  
 6.245662e+01 1.166848e+00 0.000000e+00  
 6.244241e+01 1.653102e+00 0.000000e+00  
 6.288229e+01 1.762692e+00 0.000000e+00  
 6.280273e+01 2.272196e+00 0.000000e+00  
 6.240000e+01 1.111238e+00 0.000000e+00  
 6.250006e+01 6.384180e-01 0.000000e+00  
 6.298623e+01 6.580865e-01 0.000000e+00  
 6.204052e+01 1.115713e+00 0.000000e+00  
 6.189039e+01 1.372141e+00 0.000000e+00  
 6.220607e+01 1.807454e+00 0.000000e+00  
 6.212237e+01 1.786116e+00 0.000000e+00  
 6.235135e+01 2.228640e+00 0.000000e+00  
 6.217949e+01 2.444363e+00 0.000000e+00  
 6.233939e+01 2.811298e+00 0.000000e+00  
 6.267797e+01 2.893480e+00 0.000000e+00  
 6.252765e+01 3.485076e+00 0.000000e+00  
 6.236832e+01 4.014893e+00 0.000000e+00  
 6.153289e+01 1.421236e+00 0.000000e+00  
 6.172389e+01 1.998772e+00 0.000000e+00  
 6.144370e+01 1.687863e+00 0.000000e+00  
 6.300280e+01 1.013069e-01 0.000000e+00  
 6.186739e+01 8.362251e-01 0.000000e+00  
 6.204333e+01 4.996117e-01 0.000000e+00  
 6.239358e+01 5.056992e-01 0.000000e+00  
 6.253135e+01 1.137145e-01 0.000000e+00  
 6.299539e+01 -4.405579e-01 0.000000e+00  
 6.296663e+01 -9.721288e-01 0.000000e+00  
 6.135468e+01 1.174512e+00 0.000000e+00  
 6.150651e+01 8.293794e-01 0.000000e+00  
 6.167546e+01 2.218936e+00 0.000000e+00  
 6.187791e+01 2.443786e+00 0.000000e+00  
 6.135749e+01 2.321194e+00 0.000000e+00  
 6.170360e+01 2.871804e+00 0.000000e+00  
 6.205356e+01 3.327675e+00 0.000000e+00  
 6.202335e+01 3.080319e+00 0.000000e+00  
 6.216694e+01 4.588676e+00 0.000000e+00  
 6.192612e+01 5.183931e+00 0.000000e+00  
 6.185517e+01 3.535620e+00 0.000000e+00  
 6.193610e+01 3.896163e+00 0.000000e+00  
 6.171252e+01 4.111241e+00 0.000000e+00  
 6.179835e+01 4.464044e+00 0.000000e+00  
 6.101559e+01 1.191837e+00 0.000000e+00  
 6.085038e+01 1.532570e+00 0.000000e+00  
 6.109002e+01 1.817166e+00 0.000000e+00  
 6.104664e+01 2.015542e+00 0.000000e+00  
 6.137057e+01 6.170359e-01 0.000000e+00  
 6.235826e+01 -1.259506e-01 0.000000e+00  
 6.248542e+01 -4.215656e-01 0.000000e+00  
 6.187213e+01 2.491059e-01 0.000000e+00  
 6.153534e+01 2.459295e-01 0.000000e+00  
 6.204139e+01 -9.036893e-02 0.000000e+00  
 6.234336e+01 -6.967511e-01 0.000000e+00  
 6.246801e+01 -9.512203e-01 0.000000e+00  
 6.291400e+01 -1.516519e+00 0.000000e+00  
 6.233088e+01 -1.247149e+00 0.000000e+00  
 6.249452e+01 -1.488498e+00 0.000000e+00  
 6.283264e+01 -2.091450e+00 0.000000e+00  
 6.082004e+01 9.089430e-01 0.000000e+00  
 6.098697e+01 5.943145e-01 0.000000e+00  
 6.050499e+01 9.278020e-01 0.000000e+00  
 6.151862e+01 2.912584e+00 0.000000e+00  
 6.125004e+01 2.606618e+00 0.000000e+00  
 6.073540e+01 2.208801e+00 0.000000e+00  
 6.090994e+01 2.676904e+00 0.000000e+00  
 6.166150e+01 5.753727e+00 0.000000e+00  
 6.148382e+01 3.472173e+00 0.000000e+00  
 6.136693e+01 3.191869e+00 0.000000e+00  
 6.153399e+01 4.675265e+00 0.000000e+00  
 6.161790e+01 5.045176e+00 0.000000e+00  
 6.126591e+01 5.530154e+00 0.000000e+00  
 6.128532e+01 5.234407e+00 0.000000e+00  
 6.138337e+01 4.034218e+00 0.000000e+00  
 6.127717e+01 3.762958e+00 0.000000e+00  
 6.115108e+01 4.327884e+00 0.000000e+00  
 6.126933e+01 4.596171e+00 0.000000e+00  
 6.056557e+01 1.558596e+00 0.000000e+00  
 6.033252e+01 1.225567e+00 0.000000e+00  
 6.038825e+01 1.854169e+00 0.000000e+00  
 6.055054e+01 2.170551e+00 0.000000e+00  
 6.004166e+01 1.251232e+00 0.000000e+00  
 6.138552e+01 4.225663e-02 0.000000e+00  
 6.086407e+01 3.557764e-01 0.000000e+00  
 6.105487e+01 2.396659e-02 0.000000e+00  
 6.262095e+01 -3.128194e+00 0.000000e+00  
 6.274646e+01 -2.568035e+00 0.000000e+00  
 6.177517e+01 -4.113333e-01 0.000000e+00  
 6.192476e+01 -6.860225e-01 0.000000e+00  
 6.156374e+01 -3.691742e-01 0.000000e+00  
 6.177213e+01 -1.017813e+00 0.000000e+00  
 6.200376e+01 -1.278943e+00 0.000000e+00  
 6.228340e+01 -1.937129e+00 0.000000e+00  
 6.185641e+01 -1.664662e+00 0.000000e+00  
 6.215852e+01 -2.231386e+00 0.000000e+00  
 6.230563e+01 -2.513834e+00 0.000000e+00  
 6.029274e+01 6.026120e-01 0.000000e+00  
 6.045952e+01 2.972690e-01 0.000000e+00  
 5.994740e+01 6.376718e-01 0.000000e+00  
 5.982593e+01 9.680644e-01 0.000000e+00  
 6.139125e+01 6.271477e+00 0.000000e+00  
 6.110678e+01 6.761822e+00 0.000000e+00  
 6.082418e+01 2.799973e+00 0.000000e+00  
 6.095104e+01 3.177236e+00 0.000000e+00  
 6.028034e+01 2.458962e+00 0.000000e+00  
 6.043439e+01 2.817775e+00 0.000000e+00  
 6.098601e+01 5.689731e+00 0.000000e+00  
 6.099863e+01 6.046930e+00 0.000000e+00  
 6.092050e+01 3.704284e+00 0.000000e+00  
 6.079927e+01 3.393926e+00 0.000000e+00  
 6.074546e+01 5.569029e+00 0.000000e+00  
 6.094583e+01 4.962683e+00 0.000000e+00  
 6.069069e+01 5.163190e+00 0.000000e+00  
 6.071248e+01 3.982933e+00 0.000000e+00  
 6.084851e+01 4.275227e+00 0.000000e+00  
 6.062151e+01 4.569008e+00 0.000000e+00  
 5.996353e+01 2.413379e+00 0.000000e+00  
 5.987276e+01 1.571958e+00 0.000000e+00  
 6.004031e+01 1.841601e+00 0.000000e+00  
 5.985670e+01 2.169747e+00 0.000000e+00  
 5.956367e+01 1.575291e+00 0.000000e+00  
 5.945187e+01 1.033024e+00 0.000000e+00  
 5.936463e+01 1.317434e+00 0.000000e+00  
 6.248135e+01 -3.648381e+00 0.000000e+00  
 6.229839e+01 -4.223386e+00 0.000000e+00  
 6.210092e+01 -4.758931e+00 0.000000e+00  
 6.036956e+01 8.439247e-02 0.000000e+00  
 6.122694e+01 -6.192997e-01 0.000000e+00  
 6.088175e+01 -2.645409e-01 0.000000e+00  
 6.070245e+01 -3.027438e-01 0.000000e+00  
 6.209503e+01 -3.558178e+00 0.000000e+00  
 6.197492e+01 -3.217033e+00 0.000000e+00  
 6.211213e+01 -2.988412e+00 0.000000e+00  
 6.208201e+01 -2.868387e+00 0.000000e+00  
 6.120269e+01 -7.854980e-01 0.000000e+00  
 6.151792e+01 -1.060876e+00 0.000000e+00  
 6.169415e+01 -1.719444e+00 0.000000e+00  
 6.134830e+01 -1.480706e+00 0.000000e+00  
 6.156608e+01 -2.126489e+00 0.000000e+00  
 6.173121e+01 -2.301909e+00 0.000000e+00  
 6.168551e+01 -2.655912e+00 0.000000e+00  
 6.010507e+01 -3.103571e-02 0.000000e+00  
 5.978076e+01 1.444159e-01 0.000000e+00  
 5.974555e+01 3.904917e-01 0.000000e+00  
 5.929708e+01 5.420777e-01 0.000000e+00  
 5.925514e+01 7.802195e-01 0.000000e+00  
 6.078581e+01 7.263808e+00 0.000000e+00  
 6.044328e+01 7.747417e+00 0.000000e+00  
 6.045784e+01 7.045518e+00 0.000000e+00  
 6.066283e+01 6.255926e+00 0.000000e+00  
 6.064475e+01 6.497555e+00 0.000000e+00  
 6.045053e+01 6.650445e+00 0.000000e+00  
 6.044163e+01 3.370667e+00 0.000000e+00  
 6.028611e+01 3.033145e+00 0.000000e+00  
 5.977477e+01 2.692426e+00 0.000000e+00  
 5.995854e+01 3.034890e+00 0.000000e+00  
 6.035063e+01 5.979290e+00 0.000000e+00  
 6.040606e+01 5.733529e+00 0.000000e+00  
 6.040337e+01 3.945864e+00 0.000000e+00  
 6.024847e+01 3.644050e+00 0.000000e+00  
 6.029295e+01 5.119920e+00 0.000000e+00  
 6.013019e+01 5.433795e+00 0.000000e+00  
 6.017006e+01 4.871721e+00 0.000000e+00  
 6.037412e+01 4.567401e+00 0.000000e+00  
 6.018169e+01 4.253137e+00 0.000000e+00  
 5.945249e+01 2.702173e+00 0.000000e+00  
 5.926547e+01 2.384891e+00 0.000000e+00  
 5.940660e+01 2.090668e+00 0.000000e+00  
 5.935873e+01 1.966689e+00 0.000000e+00  
 5.894316e+01 1.796030e+00 0.000000e+00  
 5.900561e+01 1.406199e+00 0.000000e+00  
 5.877853e+01 1.201233e+00 0.000000e+00  
 5.881236e+01 9.234263e-01 0.000000e+00  
 6.188950e+01 -5.264007e+00 0.000000e+00  
 6.167616e+01 -5.720533e+00 0.000000e+00  
 6.184731e+01 -3.803612e+00 0.000000e+00  
 6.192546e+01 -4.089282e+00 0.000000e+00  
 6.157265e+01 -3.713992e+00 0.000000e+00  
 6.165102e+01 -4.343362e+00 0.000000e+00  
 6.169767e+01 -4.592798e+00 0.000000e+00  
 6.144102e+01 -4.841675e+00 0.000000e+00  
 6.148356e+01 -5.075997e+00 0.000000e+00  
 6.050755e+01 -5.929834e-01 0.000000e+00  
 6.005945e+01 -4.554986e-01 0.000000e+00  
 6.054674e+01 -7.587747e-01 0.000000e+00  
 6.093210e+01 -9.441988e-01 0.000000e+00  
 6.148515e+01 -3.292297e+00 0.000000e+00  
 6.142007e+01 -2.816989e+00 0.000000e+00  
 6.117752e+01 -1.524627e+00 0.000000e+00  
 6.088803e+01 -1.309522e+00 0.000000e+00  
 6.123334e+01 -2.162555e+00 0.000000e+00  
 6.103829e+01 -1.891894e+00 0.000000e+00  
 6.125064e+01 -2.753893e+00 0.000000e+00  
 6.110107e+01 -2.423422e+00 0.000000e+00  
 5.991948e+01 -5.518351e-01 0.000000e+00  
 5.953837e+01 -4.069588e-01 0.000000e+00  
 5.949222e+01 -1.125002e-01 0.000000e+00  
 5.909024e+01 2.877349e-01 0.000000e+00  
 5.913691e+01 3.133340e-02 0.000000e+00  
 5.862004e+01 7.049908e-01 0.000000e+00  
 5.865382e+01 4.221288e-01 0.000000e+00  
 5.979820e+01 8.008113e+00 0.000000e+00  
 6.006857e+01 8.229579e+00 0.000000e+00  
 5.966887e+01 8.694788e+00 0.000000e+00  
 6.007955e+01 7.205401e+00 0.000000e+00  
 6.003979e+01 7.458828e+00 0.000000e+00  
 5.981266e+01 7.593180e+00 0.000000e+00  
 6.003036e+01 6.549603e+00 0.000000e+00  
 5.987251e+01 6.968415e+00 0.000000e+00  
 5.994143e+01 6.398937e+00 0.000000e+00  
 6.004869e+01 6.104185e+00 0.000000e+00  
 5.977100e+01 3.304173e+00 0.000000e+00  
 5.994995e+01 3.623843e+00 0.000000e+00  
 5.949496e+01 3.299131e+00 0.000000e+00  
 5.929593e+01 2.970037e+00 0.000000e+00  
 5.972070e+01 5.758295e+00 0.000000e+00  
 5.985183e+01 5.482791e+00 0.000000e+00  
 5.973148e+01 3.926995e+00 0.000000e+00  
 5.991421e+01 4.237344e+00 0.000000e+00  
 5.961785e+01 5.156227e+00 0.000000e+00  
 5.984748e+01 4.835154e+00 0.000000e+00  
 5.969646e+01 4.541869e+00 0.000000e+00  
 5.897017e+01 2.999078e+00 0.000000e+00  
 5.888278e+01 2.434297e+00 0.000000e+00  
 5.878438e+01 2.743348e+00 0.000000e+00  
 5.870376e+01 2.206755e+00 0.000000e+00  
 5.876968e+01 1.893604e+00 0.000000e+00  
 5.843721e+01 1.352772e+00 0.000000e+00  
 5.839219e+01 1.660309e+00 0.000000e+00  
 5.814444e+01 8.587354e-01 0.000000e+00  
 5.813214e+01 1.100857e+00 0.000000e+00  
 6.126027e+01 -6.504147e+00 0.000000e+00  
 6.142069e+01 -6.217351e+00 0.000000e+00  
 6.119474e+01 -5.365965e+00 0.000000e+00  
 6.100645e+01 -5.857690e+00 0.000000e+00  
[...]
 POINT_DATA 7926 
 VECTORS Displacement float 
 -2.952680e-05 2.611449e-04 0.000000e+00  
 -2.864319e-05 2.483870e-04 0.000000e+00  
 -4.093491e-05 2.496563e-04 0.000000e+00  
 -4.427735e-05 2.613595e-04 0.000000e+00  
 -5.757509e-05 2.616508e-04 0.000000e+00  
 -2.722740e-05 2.466497e-04 0.000000e+00  
 -1.562412e-05 2.483709e-04 0.000000e+00  
 -1.637199e-05 2.610085e-04 0.000000e+00  
 -2.686707e-05 2.364301e-04 0.000000e+00  
 -3.289597e-05 2.327911e-04 0.000000e+00  
 -4.442961e-05 2.438623e-04 0.000000e+00  
 -4.375332e-05 2.414382e-04 0.000000e+00  
 -5.568686e-05 2.499533e-04 0.000000e+00  
 -6.108429e-05 2.465267e-04 0.000000e+00  
 -7.141946e-05 2.530687e-04 0.000000e+00  
 -7.426084e-05 2.619959e-04 0.000000e+00  
 -9.082219e-05 2.623528e-04 0.000000e+00  
 -1.063238e-04 2.626135e-04 0.000000e+00  
 -3.334519e-05 2.219519e-04 0.000000e+00  
 -4.823818e-05 2.308240e-04 0.000000e+00  
 -3.963526e-05 2.203687e-04 0.000000e+00  
 -2.514127e-06 2.609665e-04 0.000000e+00  
 -1.986450e-05 2.304163e-04 0.000000e+00  
 -1.195032e-05 2.351065e-04 0.000000e+00  
 -1.232292e-05 2.452434e-04 0.000000e+00  
 -2.773064e-06 2.487294e-04 0.000000e+00  
 1.096292e-05 2.610006e-04 0.000000e+00  
 2.425300e-05 2.611012e-04 0.000000e+00  
 -2.704782e-05 2.150996e-04 0.000000e+00  
 -1.922317e-05 2.189957e-04 0.000000e+00  
 -5.375289e-05 2.307074e-04 0.000000e+00  
 -6.027336e-05 2.380917e-04 0.000000e+00  
 -5.532503e-05 2.215345e-04 0.000000e+00  
 -7.135312e-05 2.361539e-04 0.000000e+00  
 -8.530086e-05 2.493700e-04 0.000000e+00  
 -7.813746e-05 2.466356e-04 0.000000e+00  
 -1.239769e-04 2.627934e-04 0.000000e+00  
 -1.434088e-04 2.628232e-04 0.000000e+00  
 -9.077675e-05 2.457986e-04 0.000000e+00  
 -1.018179e-04 2.510524e-04 0.000000e+00  
 -1.078072e-04 2.472435e-04 0.000000e+00  
 -1.192813e-04 2.528326e-04 0.000000e+00  
 -2.663258e-05 2.035507e-04 0.000000e+00  
 -3.399376e-05 1.993524e-04 0.000000e+00  
 -4.163441e-05 2.094106e-04 0.000000e+00  
 -4.635452e-05 2.092098e-04 0.000000e+00  
 -1.410877e-05 2.139881e-04 0.000000e+00  
 3.065904e-06 2.439508e-04 0.000000e+00  
 1.031680e-05 2.477032e-04 0.000000e+00  
 -5.889714e-06 2.296399e-04 0.000000e+00  
 -5.683603e-06 2.189228e-04 0.000000e+00  
 2.175983e-06 2.347004e-04 0.000000e+00  
 1.697796e-05 2.441489e-04 0.000000e+00  
 2.335089e-05 2.481253e-04 0.000000e+00  
 3.803096e-05 2.612445e-04 0.000000e+00  
 3.056051e-05 2.451394e-04 0.000000e+00  
 3.685288e-05 2.504043e-04 0.000000e+00  
 5.283579e-05 2.615587e-04 0.000000e+00  
 -1.976355e-05 1.954134e-04 0.000000e+00  
 -1.310322e-05 2.006057e-04 0.000000e+00  
 -1.939611e-05 1.835982e-04 0.000000e+00  
 -7.177659e-05 2.310643e-04 0.000000e+00  
 -6.237996e-05 2.203117e-04 0.000000e+00  
 -4.969947e-05 1.998671e-04 0.000000e+00  
 -6.259599e-05 2.098363e-04 0.000000e+00  
 -1.633403e-04 2.626129e-04 0.000000e+00  
 -8.759440e-05 2.349674e-04 0.000000e+00  
 -7.900590e-05 2.289732e-04 0.000000e+00  
 -1.254766e-04 2.482763e-04 0.000000e+00  
 -1.382284e-04 2.542442e-04 0.000000e+00  
 -1.546915e-04 2.510078e-04 0.000000e+00  
 -1.440064e-04 2.481301e-04 0.000000e+00  
 -1.042157e-04 2.376154e-04 0.000000e+00  
 -9.540615e-05 2.318386e-04 0.000000e+00  
 -1.125785e-04 2.342838e-04 0.000000e+00  
 -1.219372e-04 2.405092e-04 0.000000e+00  
 -3.350680e-05 1.890626e-04 0.000000e+00  
 -2.522608e-05 1.782090e-04 0.000000e+00  
 -3.944315e-05 1.843937e-04 0.000000e+00  
 -4.780254e-05 1.929171e-04 0.000000e+00  
 -2.461830e-05 1.666137e-04 0.000000e+00  
 -9.662701e-07 2.138450e-04 0.000000e+00  
 -7.724106e-06 1.957167e-04 0.000000e+00  
 -5.167696e-07 2.023748e-04 0.000000e+00  
 8.078701e-05 2.621252e-04 0.000000e+00  
 6.547848e-05 2.617826e-04 0.000000e+00  
 9.686335e-06 2.267989e-04 0.000000e+00  
 1.634854e-05 2.318768e-04 0.000000e+00  
 8.560776e-06 2.199723e-04 0.000000e+00  
 2.414106e-05 2.280004e-04 0.000000e+00  
 3.085433e-05 2.358546e-04 0.000000e+00  
 4.798639e-05 2.466579e-04 0.000000e+00  
 4.017427e-05 2.330913e-04 0.000000e+00  
 5.538272e-05 2.446776e-04 0.000000e+00  
 6.324995e-05 2.503218e-04 0.000000e+00  
 -1.214349e-05 1.741750e-04 0.000000e+00  
 -6.117377e-06 1.802281e-04 0.000000e+00  
 -1.208020e-05 1.599677e-04 0.000000e+00  
 -1.810627e-05 1.560457e-04 0.000000e+00  
 -1.827534e-04 2.620624e-04 0.000000e+00  
 -2.024748e-04 2.611623e-04 0.000000e+00  
 -6.543437e-05 2.081446e-04 0.000000e+00  
 -7.653919e-05 2.159555e-04 0.000000e+00  
 -5.328838e-05 1.855358e-04 0.000000e+00  
 -6.354120e-05 1.948026e-04 0.000000e+00  
 -1.599321e-04 2.459696e-04 0.000000e+00  
 -1.737673e-04 2.505426e-04 0.000000e+00  
 -9.181317e-05 2.205569e-04 0.000000e+00  
 -8.190206e-05 2.133574e-04 0.000000e+00  
 -1.545673e-04 2.383156e-04 0.000000e+00  
 -1.331690e-04 2.361290e-04 0.000000e+00  
 -1.391728e-04 2.315800e-04 0.000000e+00  
 -9.918462e-05 2.173593e-04 0.000000e+00  
 -1.093340e-04 2.249756e-04 0.000000e+00  
 -1.178562e-04 2.219477e-04 0.000000e+00  
 -4.993847e-05 1.729118e-04 0.000000e+00  
 -3.047778e-05 1.616952e-04 0.000000e+00  
 -3.724210e-05 1.706455e-04 0.000000e+00  
 -4.341622e-05 1.661960e-04 0.000000e+00  
 -2.871972e-05 1.484214e-04 0.000000e+00  
 -1.778896e-05 1.397635e-04 0.000000e+00  
 -2.254717e-05 1.375608e-04 0.000000e+00  
 9.554209e-05 2.624058e-04 0.000000e+00  
 1.126251e-04 2.626668e-04 0.000000e+00  
 1.294220e-04 2.628036e-04 0.000000e+00  
 -1.712749e-06 1.764640e-04 0.000000e+00  
 1.399555e-05 2.090794e-04 0.000000e+00  
 5.753809e-06 1.962637e-04 0.000000e+00  
 6.456571e-06 1.895705e-04 0.000000e+00  
 9.213242e-05 2.522429e-04 0.000000e+00  
 8.191758e-05 2.463672e-04 0.000000e+00  
 7.585586e-05 2.483914e-04 0.000000e+00  
 7.240153e-05 2.466743e-04 0.000000e+00  
 1.775558e-05 2.086831e-04 0.000000e+00  
 2.472606e-05 2.200224e-04 0.000000e+00  
 4.113358e-05 2.284255e-04 0.000000e+00  
 3.437033e-05 2.162080e-04 0.000000e+00  
 5.105375e-05 2.267738e-04 0.000000e+00  
 5.608747e-05 2.329006e-04 0.000000e+00  
 6.540727e-05 2.339781e-04 0.000000e+00  
 6.126851e-07 1.656650e-04 0.000000e+00  
 -2.638305e-06 1.517942e-04 0.000000e+00  
 -7.074178e-06 1.506062e-04 0.000000e+00  
 -8.782033e-06 1.304742e-04 0.000000e+00  
 -1.261331e-05 1.293840e-04 0.000000e+00  
 -2.241971e-04 2.596970e-04 0.000000e+00  
 -2.468865e-04 2.576405e-04 0.000000e+00  
 -2.150459e-04 2.498729e-04 0.000000e+00  
 -1.814945e-04 2.449945e-04 0.000000e+00  
 -1.915028e-04 2.476051e-04 0.000000e+00  
 -1.977159e-04 2.448085e-04 0.000000e+00  
 -7.888777e-05 2.012116e-04 0.000000e+00  
 -6.827833e-05 1.918625e-04 0.000000e+00  
 -5.525246e-05 1.685297e-04 0.000000e+00  
 -6.572761e-05 1.798143e-04 0.000000e+00  
 -1.692757e-04 2.334408e-04 0.000000e+00  
 -1.595697e-04 2.315140e-04 0.000000e+00  
 -9.592971e-05 2.070599e-04 0.000000e+00  
 -8.548059e-05 1.979886e-04 0.000000e+00  
 -1.353665e-04 2.197777e-04 0.000000e+00  
 -1.463010e-04 2.195700e-04 0.000000e+00  
 -1.254459e-04 2.125292e-04 0.000000e+00  
 -1.161776e-04 2.144601e-04 0.000000e+00  
 -1.041356e-04 2.039860e-04 0.000000e+00  
 -5.250202e-05 1.555074e-04 0.000000e+00  
 -4.325721e-05 1.434734e-04 0.000000e+00  
 -3.816741e-05 1.463713e-04 0.000000e+00  
 -3.514740e-05 1.429504e-04 0.000000e+00  
 -2.830788e-05 1.220464e-04 0.000000e+00  
 -2.181830e-05 1.213726e-04 0.000000e+00  
 -1.694217e-05 1.085931e-04 0.000000e+00  
 -1.293403e-05 1.084700e-04 0.000000e+00  
 1.461683e-04 2.627718e-04 0.000000e+00  
 1.621662e-04 2.625634e-04 0.000000e+00  
 9.876180e-05 2.479022e-04 0.000000e+00  
 1.077484e-04 2.524909e-04 0.000000e+00  
 9.511390e-05 2.396681e-04 0.000000e+00  
 1.149898e-04 2.479029e-04 0.000000e+00  
 1.232251e-04 2.515821e-04 0.000000e+00  
 1.308110e-04 2.477028e-04 0.000000e+00  
 1.389922e-04 2.512851e-04 0.000000e+00  
 1.236784e-05 1.826887e-04 0.000000e+00  
 8.828716e-06 1.642435e-04 0.000000e+00  
 1.594180e-05 1.845894e-04 0.000000e+00  
 2.085636e-05 1.996279e-04 0.000000e+00  
 8.236470e-05 2.333604e-04 0.000000e+00  
 6.874538e-05 2.272969e-04 0.000000e+00  
 3.490739e-05 2.107070e-04 0.000000e+00  
 2.900202e-05 1.995635e-04 0.000000e+00  
 5.079062e-05 2.164566e-04 0.000000e+00  
 4.330532e-05 2.081202e-04 0.000000e+00  
 6.635736e-05 2.215714e-04 0.000000e+00  
 5.691470e-05 2.140514e-04 0.000000e+00  
 1.040755e-05 1.585453e-04 0.000000e+00  
 7.048101e-06 1.413369e-04 0.000000e+00  
 1.911185e-06 1.387827e-04 0.000000e+00  
 -4.352104e-06 1.199381e-04 0.000000e+00  
 -4.864046e-07 1.219488e-04 0.000000e+00  
 -8.969490e-06 9.744557e-05 0.000000e+00  
 -5.414580e-06 9.816100e-05 0.000000e+00  
 -2.616027e-04 2.463357e-04 0.000000e+00  
 -2.713919e-04 2.547446e-04 0.000000e+00  
 -2.973190e-04 2.509569e-04 0.000000e+00  
 -2.223092e-04 2.430668e-04 0.000000e+00  
 -2.343090e-04 2.453495e-04 0.000000e+00  
 -2.409786e-04 2.416617e-04 0.000000e+00  
 -1.923683e-04 2.330847e-04 0.000000e+00  
 -2.110637e-04 2.348690e-04 0.000000e+00  
 -1.854114e-04 2.285978e-04 0.000000e+00  
 -1.731384e-04 2.271686e-04 0.000000e+00  
 -7.143150e-05 1.762373e-04 0.000000e+00  
 -8.235158e-05 1.872310e-04 0.000000e+00  
 -6.850400e-05 1.654767e-04 0.000000e+00  
 -5.754976e-05 1.526244e-04 0.000000e+00  
 -1.566976e-04 2.126978e-04 0.000000e+00  
 -1.463240e-04 2.122065e-04 0.000000e+00  
 -8.955959e-05 1.837853e-04 0.000000e+00  
 -1.013182e-04 1.948491e-04 0.000000e+00  
 -1.315756e-04 1.997252e-04 0.000000e+00  
 -1.215256e-04 2.018570e-04 0.000000e+00  
 -1.096317e-04 1.922129e-04 0.000000e+00  
 -5.443008e-05 1.391354e-04 0.000000e+00  
 -4.027359e-05 1.269312e-04 0.000000e+00  
 -4.594223e-05 1.268724e-04 0.000000e+00  
 -3.359665e-05 1.153620e-04 0.000000e+00  
 -2.843250e-05 1.146978e-04 0.000000e+00  
 -1.667337e-05 9.225926e-05 0.000000e+00  
 -2.081093e-05 9.303832e-05 0.000000e+00  
 -8.479665e-06 7.263254e-05 0.000000e+00  
 -1.104589e-05 7.357594e-05 0.000000e+00  
 1.919477e-04 2.616225e-04 0.000000e+00  
 1.806714e-04 2.621494e-04 0.000000e+00  
 1.485138e-04 2.473735e-04 0.000000e+00  
 1.664772e-04 2.484849e-04 0.000000e+00  
 1.544954e-04 2.501434e-04 0.000000e+00  
 1.092368e-04 2.380734e-04 0.000000e+00  
 1.000265e-04 2.342455e-04 0.000000e+00  
 9.425534e-05 2.245070e-04 0.000000e+00  
 8.297784e-05 2.203669e-04 0.000000e+00  
 1.145810e-04 2.330565e-04 0.000000e+00  
 1.245748e-04 2.369686e-04 0.000000e+00  
 1.419307e-04 2.379448e-04 0.000000e+00  
 1.290976e-04 2.334302e-04 0.000000e+00  
 2.319797e-05 1.745081e-04 0.000000e+00  
 1.723023e-05 1.588061e-04 0.000000e+00  
 3.043223e-05 1.897068e-04 0.000000e+00  
 7.858025e-05 2.143628e-04 0.000000e+00  
 7.161308e-05 2.115994e-04 0.000000e+00  
 5.111323e-05 1.945669e-04 0.000000e+00  
 4.248058e-05 1.947739e-04 0.000000e+00  
 3.810591e-05 1.888013e-04 0.000000e+00  
 5.536349e-05 1.999677e-04 0.000000e+00  
 6.435757e-05 2.009208e-04 0.000000e+00  
 1.900412e-05 1.478122e-04 0.000000e+00  
 1.585585e-05 1.349428e-04 0.000000e+00  
 1.031797e-05 1.305816e-04 0.000000e+00  
 7.678607e-06 1.143813e-04 0.000000e+00  
 3.104875e-06 1.099416e-04 0.000000e+00  
 1.480118e-06 9.209161e-05 0.000000e+00  
 -2.558596e-06 8.800840e-05 0.000000e+00  
 -5.852778e-06 6.280219e-05 0.000000e+00  
 -2.604979e-06 6.709996e-05 0.000000e+00  
 -3.989729e-06 3.994669e-05 0.000000e+00  
 -3.227270e-04 2.464218e-04 0.000000e+00  
 -2.808647e-04 2.390674e-04 0.000000e+00  
 -2.355400e-04 2.325661e-04 0.000000e+00  
 -2.524463e-04 2.302939e-04 0.000000e+00  
 -2.679261e-04 2.381680e-04 0.000000e+00  
 -2.867232e-04 2.345092e-04 0.000000e+00  
 -3.088220e-04 2.363992e-04 0.000000e+00  
 -1.837896e-04 2.184917e-04 0.000000e+00  
 -2.110970e-04 2.251070e-04 0.000000e+00  
 -2.211186e-04 2.257308e-04 0.000000e+00  
 -2.006129e-04 2.193560e-04 0.000000e+00  
 -1.583205e-04 2.062828e-04 0.000000e+00  
 -1.718329e-04 2.093586e-04 0.000000e+00  
 -1.480544e-04 1.956085e-04 0.000000e+00  
 -8.613975e-05 1.736589e-04 0.000000e+00  
 -7.444988e-05 1.614667e-04 0.000000e+00  
 -7.113885e-05 1.518645e-04 0.000000e+00  
 -6.018533e-05 1.382677e-04 0.000000e+00  
 -1.287396e-04 1.910436e-04 0.000000e+00  
 -9.294851e-05 1.705436e-04 0.000000e+00  
 -1.335018e-04 1.888106e-04 0.000000e+00  
 -1.049284e-04 1.802324e-04 0.000000e+00  
 -1.108338e-04 1.779290e-04 0.000000e+00  
 -5.673135e-05 1.248037e-04 0.000000e+00  
 -4.892149e-05 1.123879e-04 0.000000e+00  
 -4.185951e-05 1.090367e-04 0.000000e+00  
 -3.000466e-05 9.532509e-05 0.000000e+00  
 -3.604685e-05 9.885361e-05 0.000000e+00  
 -2.571643e-05 8.626296e-05 0.000000e+00  
 -2.027631e-05 8.276677e-05 0.000000e+00  
 -1.058268e-05 5.623800e-05 0.000000e+00  
 -1.438277e-05 6.293199e-05 0.000000e+00  
 -6.744542e-06 3.849744e-05 0.000000e+00  
 -4.692806e-06 3.193262e-05 0.000000e+00  
 0.000000e+00 0.000000e+00 0.000000e+00  
 2.128560e-04 2.604603e-04 0.000000e+00  
 1.866523e-04 2.494439e-04 0.000000e+00  
 2.013779e-04 2.494196e-04 0.000000e+00  
 1.674253e-04 2.448303e-04 0.000000e+00  
 1.776539e-04 2.444807e-04 0.000000e+00  
 1.530385e-04 2.329266e-04 0.000000e+00  
 1.461209e-04 2.321285e-04 0.000000e+00  
 9.773186e-05 2.175282e-04 0.000000e+00  
 1.074942e-04 2.217536e-04 0.000000e+00  
 9.142008e-05 2.076333e-04 0.000000e+00  
 8.101956e-05 2.037140e-04 0.000000e+00  
 1.130111e-04 2.157836e-04 0.000000e+00  
 1.222965e-04 2.205294e-04 0.000000e+00  
 1.303565e-04 2.176109e-04 0.000000e+00  
 2.812754e-05 1.522863e-04 0.000000e+00  
 3.662648e-05 1.737802e-04 0.000000e+00  
 3.086077e-05 1.658057e-04 0.000000e+00  
 4.363542e-05 1.714997e-04 0.000000e+00  
 7.371333e-05 1.924277e-04 0.000000e+00  
 6.501954e-05 1.905796e-04 0.000000e+00  
 5.786577e-05 1.799494e-04 0.000000e+00  
 4.945670e-05 1.798172e-04 0.000000e+00  
 2.888325e-05 1.489630e-04 0.000000e+00  
 1.845979e-05 1.231625e-04 0.000000e+00  
 2.471802e-05 1.301072e-04 0.000000e+00  
 1.568969e-05 1.098091e-04 0.000000e+00  
 1.034097e-05 1.023783e-04 0.000000e+00  
 8.211376e-06 8.747453e-05 0.000000e+00  
 3.785280e-06 7.975929e-05 0.000000e+00  
 -5.532882e-07 5.543943e-05 0.000000e+00  
 2.623177e-06 6.381059e-05 0.000000e+00  
 -5.142604e-07 3.757074e-05 0.000000e+00  
 -1.627409e-06 2.799236e-05 0.000000e+00  
 0.000000e+00 0.000000e+00 0.000000e+00  
 -3.516145e-04 2.403269e-04 0.000000e+00  
 -3.803648e-04 2.332197e-04 0.000000e+00  
 -3.152704e-04 2.296267e-04 0.000000e+00  
 -3.361961e-04 2.310822e-04 0.000000e+00  
 -3.049627e-04 2.227948e-04 0.000000e+00  
 -2.544643e-04 2.198469e-04 0.000000e+00  
 -2.752628e-04 2.234729e-04 0.000000e+00  
 -2.230315e-04 2.140785e-04 0.000000e+00  
 -2.491478e-04 2.219707e-04 0.000000e+00  
 -2.819692e-04 2.196470e-04 0.000000e+00  
 -1.927106e-04 2.064469e-04 0.000000e+00  
 -1.738181e-04 1.999132e-04 0.000000e+00  
 -2.181731e-04 2.100558e-04 0.000000e+00  
 -1.985596e-04 2.033722e-04 0.000000e+00  
 -1.636480e-04 1.902180e-04 0.000000e+00  
 -1.517357e-04 1.861098e-04 0.000000e+00  
 -1.372041e-04 1.732380e-04 0.000000e+00  
 -1.248042e-04 1.726537e-04 0.000000e+00  
 -8.546209e-05 1.543659e-04 0.000000e+00  
 -6.698191e-05 1.287569e-04 0.000000e+00  
 -7.751095e-05 1.475273e-04 0.000000e+00  
 -9.171765e-05 1.524445e-04 0.000000e+00  
 -1.145008e-04 1.647328e-04 0.000000e+00  
 -1.062455e-04 1.655579e-04 0.000000e+00  
 -6.644903e-05 1.236104e-04 0.000000e+00  
 -5.134547e-05 1.003650e-04 0.000000e+00  
 -4.542141e-05 9.767932e-05 0.000000e+00  
 -3.059833e-05 7.777939e-05 0.000000e+00  
 -3.432954e-05 7.927523e-05 0.000000e+00  
 -2.276112e-05 6.352962e-05 0.000000e+00  
 -2.043663e-05 6.404486e-05 0.000000e+00  
 -1.369146e-05 4.916683e-05 0.000000e+00  
 -1.025553e-05 3.695289e-05 0.000000e+00  
 -5.492762e-06 2.306303e-05 0.000000e+00  
 0.000000e+00 0.000000e+00 0.000000e+00  
 2.950692e-04 2.513197e-04 0.000000e+00  
 2.716898e-04 2.547181e-04 0.000000e+00  
 2.502155e-04 2.572674e-04 0.000000e+00  
 2.312739e-04 2.590844e-04 0.000000e+00  
 2.026803e-04 2.459159e-04 0.000000e+00  
 2.183983e-04 2.467157e-04 0.000000e+00  
 1.911644e-04 2.359069e-04 0.000000e+00  
 1.765602e-04 2.349111e-04 0.000000e+00  
 1.656769e-04 2.268503e-04 0.000000e+00  
 1.559317e-04 2.258190e-04 0.000000e+00  
 1.300855e-04 2.135362e-04 0.000000e+00  
 1.415688e-04 2.129972e-04 0.000000e+00  
 1.057990e-04 2.044717e-04 0.000000e+00  
 9.333152e-05 1.997979e-04 0.000000e+00  
 7.470756e-05 1.848066e-04 0.000000e+00  
 8.588792e-05 1.881042e-04 0.000000e+00  
 1.176905e-04 2.003817e-04 0.000000e+00  
 1.077863e-04 1.978483e-04 0.000000e+00  
 4.161354e-05 1.573630e-04 0.000000e+00  
 3.812328e-05 1.510589e-04 0.000000e+00  
 5.106284e-05 1.581164e-04 0.000000e+00  
 6.628495e-05 1.696152e-04 0.000000e+00  
 5.688290e-05 1.673901e-04 0.000000e+00  
 3.549437e-05 1.341109e-04 0.000000e+00  
 2.752370e-05 1.227154e-04 0.000000e+00  
 1.768306e-05 9.734996e-05 0.000000e+00  
 2.476192e-05 1.094968e-04 0.000000e+00  
 9.706895e-06 7.386890e-05 0.000000e+00  
 1.554046e-05 8.652096e-05 0.000000e+00  
 8.088526e-06 6.264276e-05 0.000000e+00  
 3.848294e-06 4.947106e-05 0.000000e+00  
 2.800165e-06 3.678398e-05 0.000000e+00  
 6.649485e-07 2.390210e-05 0.000000e+00  
 0.000000e+00 0.000000e+00 0.000000e+00  
 -3.446376e-04 2.229380e-04 0.000000e+00  
 -3.615749e-04 2.228650e-04 0.000000e+00  
 -3.692812e-04 2.169576e-04 0.000000e+00  
 -3.936433e-04 2.162461e-04 0.000000e+00  
 -4.105806e-04 2.246295e-04 0.000000e+00  
 -3.257161e-04 2.144205e-04 0.000000e+00  
 -3.109910e-04 2.144958e-04 0.000000e+00  
 -2.892168e-04 2.049593e-04 0.000000e+00  
 -2.720887e-04 2.084392e-04 0.000000e+00  
 -2.242539e-04 1.999758e-04 0.000000e+00  
 -2.542157e-04 2.028060e-04 0.000000e+00  
 -2.433347e-04 2.055868e-04 0.000000e+00  
 -1.672139e-04 1.826431e-04 0.000000e+00  
 -2.151449e-04 1.929309e-04 0.000000e+00  
 -1.888720e-04 1.915112e-04 0.000000e+00  
 -1.941036e-04 1.869602e-04 0.000000e+00  
 -1.597890e-04 1.741915e-04 0.000000e+00  
 -1.341823e-04 1.644382e-04 0.000000e+00  
 -1.422878e-04 1.639495e-04 0.000000e+00  
 -1.064900e-04 1.493132e-04 0.000000e+00  
 -1.155644e-04 1.494035e-04 0.000000e+00  
 -7.340620e-05 1.252041e-04 0.000000e+00  
 -8.686535e-05 1.402098e-04 0.000000e+00  
 -9.579450e-05 1.401207e-04 0.000000e+00  
 -6.930194e-05 1.125333e-04 0.000000e+00  
 -4.932672e-05 9.059177e-05 0.000000e+00  
 -5.555172e-05 9.450769e-05 0.000000e+00  
 -3.011391e-05 6.476542e-05 0.000000e+00  
 -3.525789e-05 6.810568e-05 0.000000e+00  
 -1.521804e-05 3.995919e-05 0.000000e+00  
 -1.733380e-05 4.045494e-05 0.000000e+00  
 -8.319009e-06 2.448538e-05 0.000000e+00  
 0.000000e+00 0.000000e+00 0.000000e+00  
 3.194449e-04 2.470447e-04 0.000000e+00  
 2.600514e-04 2.443117e-04 0.000000e+00  
 2.661088e-04 2.392017e-04 0.000000e+00  
 2.819928e-04 2.410530e-04 0.000000e+00  
 2.884129e-04 2.361408e-04 0.000000e+00  
 3.068400e-04 2.379169e-04 0.000000e+00  
 2.407507e-04 2.413551e-04 0.000000e+00  
 2.210683e-04 2.432241e-04 0.000000e+00  
 2.372191e-04 2.444292e-04 0.000000e+00  
 2.338014e-04 2.329679e-04 0.000000e+00  
 2.079664e-04 2.316836e-04 0.000000e+00  
 1.922857e-04 2.304719e-04 0.000000e+00  
 1.663091e-04 2.184597e-04 0.000000e+00  
 1.796993e-04 2.198511e-04 0.000000e+00  
 1.415184e-04 2.065059e-04 0.000000e+00  
 1.531662e-04 2.073035e-04 0.000000e+00  
 1.278024e-04 1.933175e-04 0.000000e+00  
 1.190995e-04 1.912316e-04 0.000000e+00  
 9.679168e-05 1.832601e-04 0.000000e+00  
 8.639252e-05 1.800993e-04 0.000000e+00  
 6.690950e-05 1.636582e-04 0.000000e+00  
 7.847333e-05 1.683637e-04 0.000000e+00  
 1.058551e-04 1.771929e-04 0.000000e+00  
 9.780709e-05 1.751218e-04 0.000000e+00  
 4.837602e-05 1.434596e-04 0.000000e+00  
 3.893318e-05 1.308428e-04 0.000000e+00  
 5.257528e-05 1.408958e-04 0.000000e+00  
 5.984776e-05 1.483907e-04 0.000000e+00  
 3.542839e-05 1.147641e-04 0.000000e+00  
 2.706869e-05 1.016644e-04 0.000000e+00  
 1.640616e-05 7.326184e-05 0.000000e+00  
 2.362879e-05 8.786111e-05 0.000000e+00  
 1.412931e-05 6.340454e-05 0.000000e+00  
 8.168596e-06 4.744787e-05 0.000000e+00  