# vtk DataFile Version 1.0 
PolyMesh 
ASCII 
 
DATASET POLYDATA 
 
POINTS 286 float 
-8.000000e+00 9.797200e-16 0.000000e+00  
 -7.846282e+00 -1.560723e+00 0.000000e+00  
 -7.846282e+00 1.560723e+00 0.000000e+00  
 -5.913828e+00 -1.152646e+00 0.000000e+00  
 -5.854285e+00 1.164490e+00 0.000000e+00  
 -7.391036e+00 -3.061467e+00 0.000000e+00  
 -7.391036e+00 3.061467e+00 0.000000e+00  
 -4.000000e+00 0.000000e+00 0.000000e+00  
 -5.022566e+00 3.328030e+00 0.000000e+00  
 -5.066493e+00 -3.385322e+00 0.000000e+00  
 -3.695518e+00 -1.530734e+00 0.000000e+00  
 -3.695518e+00 1.530734e+00 0.000000e+00  
 -6.651757e+00 -4.444562e+00 0.000000e+00  
 -6.651757e+00 4.444562e+00 0.000000e+00  
 -2.828427e+00 -2.828427e+00 0.000000e+00  
 -2.828427e+00 2.828427e+00 0.000000e+00  
 -5.656854e+00 5.656854e+00 0.000000e+00  
 -5.656854e+00 -5.656854e+00 0.000000e+00  
 -3.387014e+00 5.057987e+00 0.000000e+00  
 -3.328030e+00 -5.022566e+00 0.000000e+00  
 -1.530734e+00 -3.695518e+00 0.000000e+00  
 -1.530734e+00 3.695518e+00 0.000000e+00  
 -4.444562e+00 -6.651757e+00 0.000000e+00  
 -4.444562e+00 6.651757e+00 0.000000e+00  
 -3.061467e+00 -7.391036e+00 0.000000e+00  
 -3.061467e+00 7.391036e+00 0.000000e+00  
 -7.347900e-16 -4.000000e+00 0.000000e+00  
 2.449300e-16 4.000000e+00 0.000000e+00  
 -1.208336e+00 5.918330e+00 0.000000e+00  
 -1.199910e+00 -5.913270e+00 0.000000e+00  
 -1.560723e+00 -7.846282e+00 0.000000e+00  
 -1.560723e+00 7.846282e+00 0.000000e+00  
 1.530734e+00 3.695518e+00 0.000000e+00  
 1.530734e+00 -3.695518e+00 0.000000e+00  
 1.102476e+00 5.832282e+00 0.000000e+00  
 1.103680e+00 -5.831559e+00 0.000000e+00  
 2.828427e+00 -2.828427e+00 0.000000e+00  
 2.828427e+00 2.828427e+00 0.000000e+00  
 0.000000e+00 8.000000e+00 0.000000e+00  
 0.000000e+00 -8.000000e+00 0.000000e+00  
 3.695518e+00 -1.530734e+00 0.000000e+00  
 3.695518e+00 1.530734e+00 0.000000e+00  
 4.000000e+00 0.000000e+00 0.000000e+00  
 3.080087e+00 4.609676e+00 0.000000e+00  
 3.080087e+00 -4.609676e+00 0.000000e+00  
 2.683902e+00 -6.439357e+00 0.000000e+00  
 2.683902e+00 6.439357e+00 0.000000e+00  
 1.630947e+00 8.163095e+00 0.000000e+00  
 1.630947e+00 -8.163095e+00 0.000000e+00  
 4.735872e+00 3.726207e+00 0.000000e+00  
 4.735872e+00 -3.726207e+00 0.000000e+00  
 5.437484e+00 -1.081583e+00 0.000000e+00  
 5.437484e+00 1.081583e+00 0.000000e+00  
 4.498664e+00 6.497440e+00 0.000000e+00  
 4.498664e+00 -6.497440e+00 0.000000e+00  
 3.374672e+00 8.337467e+00 0.000000e+00  
 3.374672e+00 -8.337467e+00 0.000000e+00  
 7.177088e+00 2.972847e+00 0.000000e+00  
 7.177088e+00 -2.972847e+00 0.000000e+00  
 5.236036e+00 8.523604e+00 0.000000e+00  
 5.236036e+00 -8.523604e+00 0.000000e+00  
 7.768424e+00 -8.881800e-16 0.000000e+00  
 6.433837e+00 -6.562745e+00 0.000000e+00  
 6.433837e+00 6.562745e+00 0.000000e+00  
 7.219630e+00 8.721963e+00 0.000000e+00  
 7.219630e+00 -8.721963e+00 0.000000e+00  
 8.493800e+00 6.636085e+00 0.000000e+00  
 8.493800e+00 -6.636085e+00 0.000000e+00  
 9.685719e+00 4.080964e+00 0.000000e+00  
 9.685719e+00 -4.080964e+00 0.000000e+00  
 1.091620e+01 1.528514e+00 0.000000e+00  
 1.091620e+01 -1.528514e+00 0.000000e+00  
 9.329694e+00 8.932969e+00 0.000000e+00  
 9.329694e+00 -8.932969e+00 0.000000e+00  
 1.068252e+01 6.718331e+00 0.000000e+00  
 1.068252e+01 -6.718331e+00 0.000000e+00  
 1.194597e+01 -4.168338e+00 0.000000e+00  
 1.194597e+01 4.168338e+00 0.000000e+00  
 1.157001e+01 9.157001e+00 0.000000e+00  
 1.157001e+01 -9.157001e+00 0.000000e+00  
 1.385152e+01 1.904237e+00 0.000000e+00  
 1.385152e+01 -1.904237e+00 0.000000e+00  
 1.300344e+01 -6.810412e+00 0.000000e+00  
 1.300344e+01 6.810412e+00 0.000000e+00  
 1.436176e+01 -4.277801e+00 0.000000e+00  
 1.436176e+01 4.277801e+00 0.000000e+00  
 1.582963e+01 3.077752e-01 0.000000e+00  
 1.394381e+01 9.394381e+00 0.000000e+00  
 1.394381e+01 -9.394381e+00 0.000000e+00  
 1.545725e+01 6.934691e+00 0.000000e+00  
 1.545725e+01 -6.934691e+00 0.000000e+00  
 1.664669e+01 2.544993e+00 0.000000e+00  
 1.664669e+01 -2.544993e+00 0.000000e+00  
 1.645365e+01 9.645365e+00 0.000000e+00  
 1.645365e+01 -9.645365e+00 0.000000e+00  
 1.867857e+01 5.351069e-01 0.000000e+00  
 1.803600e+01 7.192566e+00 0.000000e+00  
 1.803600e+01 -7.192566e+00 0.000000e+00  
 1.948973e+01 3.387138e+00 0.000000e+00  
 1.965303e+01 -4.743235e+00 0.000000e+00  
 1.910132e+01 9.910132e+00 0.000000e+00  
 1.910132e+01 -9.910132e+00 0.000000e+00  
 2.152396e+01 -1.741768e+00 0.000000e+00  
 2.158312e+01 1.250385e+00 0.000000e+00  
 2.075303e+01 7.464269e+00 0.000000e+00  
 2.075303e+01 -7.464269e+00 0.000000e+00  
 2.243940e+01 5.021871e+00 0.000000e+00  
 2.261173e+01 -5.130019e+00 0.000000e+00  
 2.188771e+01 1.018877e+01 0.000000e+00  
 2.188771e+01 -1.018877e+01 0.000000e+00  
 2.413254e+01 -2.748639e-01 0.000000e+00  
 2.407621e+01 2.695448e+00 0.000000e+00  
 2.441466e+01 -2.747154e+00 0.000000e+00  
 2.360872e+01 -7.749838e+00 0.000000e+00  
 2.360872e+01 7.749838e+00 0.000000e+00  
 2.541200e+01 5.362274e+00 0.000000e+00  
 2.553842e+01 -5.515865e+00 0.000000e+00  
 2.481271e+01 -1.048127e+01 0.000000e+00  
 2.481271e+01 1.048127e+01 0.000000e+00  
 2.697317e+01 -2.997309e+00 0.000000e+00  
 2.704945e+01 2.932455e+00 0.000000e+00  
 2.646609e+01 8.089350e+00 0.000000e+00  
 2.653970e+01 -8.331184e+00 0.000000e+00  
 2.810434e+01 -5.666030e+00 0.000000e+00  
 2.810434e+01 5.666030e+00 0.000000e+00  
 2.890089e+01 5.774065e-01 0.000000e+00  
 2.777553e+01 1.077755e+01 0.000000e+00  
 2.777553e+01 -1.077755e+01 0.000000e+00  
 3.000075e+01 3.363869e+00 0.000000e+00  
 2.944626e+01 -8.333592e+00 0.000000e+00  
 2.944626e+01 8.333592e+00 0.000000e+00  
 3.077611e+01 -2.441180e+00 0.000000e+00  
 3.108229e+01 5.886160e+00 0.000000e+00  
 3.108229e+01 -5.886160e+00 0.000000e+00  
 3.186745e+01 1.016752e+00 0.000000e+00  
 3.059995e+01 1.106000e+01 0.000000e+00  
 3.059995e+01 -1.106000e+01 0.000000e+00  
 3.220128e+01 8.609094e+00 0.000000e+00  
 3.220128e+01 -8.609094e+00 0.000000e+00  
 3.408547e+01 2.930989e-14 0.000000e+00  
 3.441913e+01 4.132916e+00 0.000000e+00  
 3.441913e+01 -4.132916e+00 0.000000e+00  
 3.328558e+01 1.132856e+01 0.000000e+00  
 3.328558e+01 -1.132856e+01 0.000000e+00  
 3.481782e+01 8.870748e+00 0.000000e+00  
 3.481782e+01 -8.870748e+00 0.000000e+00  
 3.580169e+01 6.735224e+00 0.000000e+00  
 3.580169e+01 -6.735224e+00 0.000000e+00  
 3.668355e+01 -1.500404e+00 0.000000e+00  
 3.668355e+01 1.500404e+00 0.000000e+00  
 3.583302e+01 1.158330e+01 0.000000e+00  
 3.583302e+01 -1.158330e+01 0.000000e+00  
 3.735129e+01 4.425974e+00 0.000000e+00  
 3.735129e+01 -4.425974e+00 0.000000e+00  
 3.728881e+01 9.200110e+00 0.000000e+00  
 3.728881e+01 -9.200110e+00 0.000000e+00  
 3.912901e+01 1.953993e-14 0.000000e+00  
 3.865329e+01 7.129608e+00 0.000000e+00  
 3.865329e+01 -7.129608e+00 0.000000e+00  
 3.940157e+01 -2.419023e+00 0.000000e+00  
 3.940157e+01 2.419023e+00 0.000000e+00  
 3.824385e+01 1.182439e+01 0.000000e+00  
 3.824385e+01 -1.182439e+01 0.000000e+00  
 4.020558e+01 4.716745e+00 0.000000e+00  
 4.020558e+01 -4.716745e+00 0.000000e+00  
 3.961856e+01 9.573918e+00 0.000000e+00  
 3.961856e+01 -9.573918e+00 0.000000e+00  
 4.147008e+01 -9.610914e-01 0.000000e+00  
 4.147008e+01 9.610914e-01 0.000000e+00  
 4.150072e+01 -6.777951e+00 0.000000e+00  
 4.150072e+01 6.777951e+00 0.000000e+00  
 4.189780e+01 -2.835081e+00 0.000000e+00  
 4.189780e+01 2.835081e+00 0.000000e+00  
 4.052041e+01 1.205204e+01 0.000000e+00  
 4.052041e+01 -1.205204e+01 0.000000e+00  
 4.181589e+01 -9.931278e+00 0.000000e+00  
 4.181589e+01 9.931278e+00 0.000000e+00  
 4.273181e+01 4.566908e+00 0.000000e+00  
 4.273181e+01 -4.566908e+00 0.000000e+00  
 4.300000e+01 0.000000e+00 0.000000e+00  
 4.317550e+01 1.557647e+00 0.000000e+00  
 4.317550e+01 -1.557647e+00 0.000000e+00  
 4.369322e+01 3.037186e+00 0.000000e+00  
 4.369322e+01 -3.037186e+00 0.000000e+00  
 4.322205e+01 -8.499281e+00 0.000000e+00  
 4.322205e+01 8.499281e+00 0.000000e+00  
 4.266577e+01 -1.226658e+01 0.000000e+00  
 4.266577e+01 1.226658e+01 0.000000e+00  
 4.393027e+01 6.069731e+00 0.000000e+00  
 4.393027e+01 -6.069731e+00 0.000000e+00  
 4.452718e+01 -4.364429e+00 0.000000e+00  
 4.452718e+01 4.364429e+00 0.000000e+00  
 4.388421e+01 1.027192e+01 0.000000e+00  
 4.388421e+01 -1.027192e+01 0.000000e+00  
 4.563557e+01 5.472820e+00 0.000000e+00  
 4.563557e+01 -5.472820e+00 0.000000e+00  
 4.543309e+01 7.268192e+00 0.000000e+00  
 4.543309e+01 -7.268192e+00 0.000000e+00  
 4.468355e+01 -1.246836e+01 0.000000e+00  
 4.468355e+01 1.246836e+01 0.000000e+00  
 4.582746e+01 1.059573e+01 0.000000e+00  
 4.582746e+01 -1.059573e+01 0.000000e+00  
 4.696281e+01 -6.306782e+00 0.000000e+00  
 4.696281e+01 6.306782e+00 0.000000e+00  
 4.716492e+01 8.102196e+00 0.000000e+00  
 4.716492e+01 -8.102196e+00 0.000000e+00  
 4.657790e+01 1.265779e+01 0.000000e+00  
 4.657790e+01 -1.265779e+01 0.000000e+00  
 4.764998e+01 -1.090273e+01 0.000000e+00  
 4.764998e+01 1.090273e+01 0.000000e+00  
 4.844235e+01 6.824495e+00 0.000000e+00  
 4.844235e+01 -6.824495e+00 0.000000e+00  
 4.903891e+01 -8.529922e+00 0.000000e+00  
 4.903891e+01 8.529922e+00 0.000000e+00  
 4.835330e+01 1.283533e+01 0.000000e+00  
 4.835330e+01 -1.283533e+01 0.000000e+00  
 5.000000e+01 -7.000000e+00 0.000000e+00  
 5.000000e+01 7.000000e+00 0.000000e+00  
 4.934767e+01 1.120751e+01 0.000000e+00  
 5.013510e+01 -1.107648e+01 0.000000e+00  
 5.000000e+01 -1.300000e+01 0.000000e+00  
 5.000000e+01 1.300000e+01 0.000000e+00  
 5.096109e+01 -8.529922e+00 0.000000e+00  
 5.096109e+01 8.529922e+00 0.000000e+00  
 5.155765e+01 -6.824495e+00 0.000000e+00  
 5.155765e+01 6.824495e+00 0.000000e+00  
 5.178263e+01 1.095906e+01 0.000000e+00  
 5.156698e+01 -1.290522e+01 0.000000e+00  
 5.156698e+01 1.290522e+01 0.000000e+00  
 5.303719e+01 -6.306782e+00 0.000000e+00  
 5.303719e+01 6.306782e+00 0.000000e+00  
 5.283508e+01 -8.102196e+00 0.000000e+00  
[...]
 POINT_DATA 286 
 VECTORS Displacement float 
 3.439042e-04 -3.432661e-02 0.000000e+00  
 1.444749e-03 -3.420375e-02 0.000000e+00  
 -8.296457e-04 -3.426006e-02 0.000000e+00  
 1.152335e-03 -3.278810e-02 0.000000e+00  
 -4.819891e-04 -3.271172e-02 0.000000e+00  
 2.491928e-03 -3.389068e-02 0.000000e+00  
 -2.022243e-03 -3.395842e-02 0.000000e+00  
 3.467749e-04 -3.135224e-02 0.000000e+00  
 -2.231854e-03 -3.199905e-02 0.000000e+00  
 2.668040e-03 -3.224500e-02 0.000000e+00  
 1.350892e-03 -3.124001e-02 0.000000e+00  
 -7.552285e-04 -3.092801e-02 0.000000e+00  
 3.496153e-03 -3.341445e-02 0.000000e+00  
 -3.232391e-03 -3.338459e-02 0.000000e+00  
 2.188361e-03 -3.058612e-02 0.000000e+00  
 -1.789227e-03 -2.999107e-02 0.000000e+00  
 -4.348695e-03 -3.254547e-02 0.000000e+00  
 4.440392e-03 -3.273074e-02 0.000000e+00  
 -3.814847e-03 -3.044399e-02 0.000000e+00  
 3.915775e-03 -3.093999e-02 0.000000e+00  
 2.761963e-03 -2.940906e-02 0.000000e+00  
 -2.539528e-03 -2.860225e-02 0.000000e+00  
 5.313413e-03 -3.181747e-02 0.000000e+00  
 -5.325651e-03 -3.141821e-02 0.000000e+00  
 6.037599e-03 -3.067121e-02 0.000000e+00  
 -6.069539e-03 -3.007782e-02 0.000000e+00  
 2.929890e-03 -2.781994e-02 0.000000e+00  
 -2.822403e-03 -2.696276e-02 0.000000e+00  
 -4.649513e-03 -2.821588e-02 0.000000e+00  
 4.728654e-03 -2.900196e-02 0.000000e+00  
 6.542488e-03 -2.928435e-02 0.000000e+00  
 -6.507345e-03 -2.856519e-02 0.000000e+00  
 -2.601088e-03 -2.538653e-02 0.000000e+00  
 2.613887e-03 -2.612404e-02 0.000000e+00  
 -4.533933e-03 -2.583430e-02 0.000000e+00  
 4.653189e-03 -2.658137e-02 0.000000e+00  
 1.908217e-03 -2.464897e-02 0.000000e+00  
 -1.985930e-03 -2.412180e-02 0.000000e+00  
 -6.615570e-03 -2.697524e-02 0.000000e+00  
 6.751976e-03 -2.772488e-02 0.000000e+00  
 9.373755e-04 -2.366864e-02 0.000000e+00  
 -1.100699e-03 -2.338008e-02 0.000000e+00  
 -9.952429e-05 -2.321445e-02 0.000000e+00  
 -3.433084e-03 -2.392379e-02 0.000000e+00  
 3.489731e-03 -2.442899e-02 0.000000e+00  
 5.176538e-03 -2.489055e-02 0.000000e+00  
 -5.025803e-03 -2.433362e-02 0.000000e+00  
 -6.661544e-03 -2.536811e-02 0.000000e+00  
 6.888415e-03 -2.602525e-02 0.000000e+00  
 -2.729052e-03 -2.249628e-02 0.000000e+00  
 2.702706e-03 -2.274327e-02 0.000000e+00  
 6.415053e-04 -2.203205e-02 0.000000e+00  
 -8.343373e-04 -2.197252e-02 0.000000e+00  
 -4.981839e-03 -2.270633e-02 0.000000e+00  
 5.125118e-03 -2.304834e-02 0.000000e+00  
 -6.662203e-03 -2.374626e-02 0.000000e+00  
 6.937303e-03 -2.421990e-02 0.000000e+00  
 -2.179880e-03 -2.045483e-02 0.000000e+00  
 2.086751e-03 -2.050563e-02 0.000000e+00  
 -6.655297e-03 -2.210501e-02 0.000000e+00  
 6.914312e-03 -2.239101e-02 0.000000e+00  
 -8.323916e-05 -1.999161e-02 0.000000e+00  
 5.058585e-03 -2.121765e-02 0.000000e+00  
 -4.946794e-03 -2.105078e-02 0.000000e+00  
 -6.644354e-03 -2.043208e-02 0.000000e+00  
 6.850404e-03 -2.056867e-02 0.000000e+00  
 -4.904587e-03 -1.934873e-02 0.000000e+00  
 4.985901e-03 -1.940146e-02 0.000000e+00  
 -2.940064e-03 -1.835589e-02 0.000000e+00  
 2.907644e-03 -1.835666e-02 0.000000e+00  
 -1.109136e-03 -1.734424e-02 0.000000e+00  
 1.018071e-03 -1.732592e-02 0.000000e+00  
 -6.617041e-03 -1.871179e-02 0.000000e+00  
 6.759991e-03 -1.875619e-02 0.000000e+00  
 -4.814719e-03 -1.756776e-02 0.000000e+00  
 4.868631e-03 -1.756518e-02 0.000000e+00  
 2.889277e-03 -1.650134e-02 0.000000e+00  
 -2.913529e-03 -1.652197e-02 0.000000e+00  
 -6.547811e-03 -1.692323e-02 0.000000e+00  
 6.636880e-03 -1.692266e-02 0.000000e+00  
 -1.302233e-03 -1.499703e-02 0.000000e+00  
 1.251370e-03 -1.499069e-02 0.000000e+00  
 4.719721e-03 -1.571024e-02 0.000000e+00  
 -4.685726e-03 -1.573237e-02 0.000000e+00  
 2.853165e-03 -1.461652e-02 0.000000e+00  
 -2.865130e-03 -1.463706e-02 0.000000e+00  
 -2.140514e-04 -1.348606e-02 0.000000e+00  
 -6.424589e-03 -1.509298e-02 0.000000e+00  
 6.475216e-03 -1.507657e-02 0.000000e+00  
 -4.524710e-03 -1.387189e-02 0.000000e+00  
 4.546448e-03 -1.384915e-02 0.000000e+00  
 -1.616193e-03 -1.290089e-02 0.000000e+00  
 1.588914e-03 -1.287758e-02 0.000000e+00  
 -6.248184e-03 -1.323102e-02 0.000000e+00  
 6.274885e-03 -1.321337e-02 0.000000e+00  
 -3.305292e-04 -1.144379e-02 0.000000e+00  
 -4.431456e-03 -1.201290e-02 0.000000e+00  
 4.449445e-03 -1.199729e-02 0.000000e+00  
 -1.980537e-03 -1.091326e-02 0.000000e+00  
 2.773365e-03 -1.081900e-02 0.000000e+00  
 -6.003843e-03 -1.138357e-02 0.000000e+00  
 6.015438e-03 -1.137370e-02 0.000000e+00  
 9.577430e-04 -9.532338e-03 0.000000e+00  
 -6.933917e-04 -9.510086e-03 0.000000e+00  
 -4.277752e-03 -1.018307e-02 0.000000e+00  
 4.275148e-03 -1.016680e-02 0.000000e+00  
 -2.700722e-03 -9.027295e-03 0.000000e+00  
 2.748872e-03 -8.912950e-03 0.000000e+00  
 -5.686196e-03 -9.574105e-03 0.000000e+00  
 5.688103e-03 -9.561695e-03 0.000000e+00  
 1.408470e-04 -7.915258e-03 0.000000e+00  
 -1.358207e-03 -7.991428e-03 0.000000e+00  
 1.367634e-03 -7.785172e-03 0.000000e+00  
 4.045859e-03 -8.387857e-03 0.000000e+00  
 -4.048518e-03 -8.396910e-03 0.000000e+00  
 -2.606966e-03 -7.262162e-03 0.000000e+00  
 2.669808e-03 -7.189810e-03 0.000000e+00  
 5.290487e-03 -7.813564e-03 0.000000e+00  
 -5.289087e-03 -7.820426e-03 0.000000e+00  
 1.367379e-03 -6.347420e-03 0.000000e+00  
 -1.336361e-03 -6.307338e-03 0.000000e+00  
 -3.801539e-03 -6.772227e-03 0.000000e+00  
 3.903361e-03 -6.735605e-03 0.000000e+00  
 2.468151e-03 -5.809552e-03 0.000000e+00  
 -2.476291e-03 -5.816952e-03 0.000000e+00  
 -2.449081e-04 -5.317421e-03 0.000000e+00  
 -4.826361e-03 -6.219466e-03 0.000000e+00  
 4.821215e-03 -6.209889e-03 0.000000e+00  
 -1.341525e-03 -4.814087e-03 0.000000e+00  
 3.444346e-03 -5.247066e-03 0.000000e+00  
 -3.442612e-03 -5.254479e-03 0.000000e+00  
 9.375504e-04 -4.427493e-03 0.000000e+00  
 -2.235134e-03 -4.389449e-03 0.000000e+00  
 2.244033e-03 -4.387366e-03 0.000000e+00  
 -3.787435e-04 -3.948049e-03 0.000000e+00  
 -4.341223e-03 -4.867198e-03 0.000000e+00  
 4.337175e-03 -4.862949e-03 0.000000e+00  
 -3.091793e-03 -4.026033e-03 0.000000e+00  
 3.093582e-03 -4.026316e-03 0.000000e+00  
 -1.368894e-06 -3.012170e-03 0.000000e+00  
 -1.283308e-03 -2.936367e-03 0.000000e+00  
 1.286961e-03 -2.944454e-03 0.000000e+00  
 -3.851733e-03 -3.729314e-03 0.000000e+00  
 3.849631e-03 -3.731179e-03 0.000000e+00  
 -2.743002e-03 -2.997558e-03 0.000000e+00  
 2.744600e-03 -3.002005e-03 0.000000e+00  
 -1.929819e-03 -2.504566e-03 0.000000e+00  
 1.933609e-03 -2.511088e-03 0.000000e+00  
 3.800112e-04 -2.033045e-03 0.000000e+00  
 -3.814207e-04 -2.032022e-03 0.000000e+00  
 -3.359928e-03 -2.791380e-03 0.000000e+00  
 3.360202e-03 -2.795584e-03 0.000000e+00  
 -1.100405e-03 -1.891019e-03 0.000000e+00  
 1.102201e-03 -1.893942e-03 0.000000e+00  
 -2.391920e-03 -2.154731e-03 0.000000e+00  
 2.394072e-03 -2.159594e-03 0.000000e+00  
 -5.531818e-07 -1.195060e-03 0.000000e+00  
 -1.622774e-03 -1.627958e-03 0.000000e+00  
 1.624970e-03 -1.631245e-03 0.000000e+00  
 4.435949e-04 -1.158069e-03 0.000000e+00  
 -4.440200e-04 -1.157419e-03 0.000000e+00  
 -2.869802e-03 -2.031135e-03 0.000000e+00  
 2.871724e-03 -2.035251e-03 0.000000e+00  
 -8.283159e-04 -1.050974e-03 0.000000e+00  
 8.291577e-04 -1.052328e-03 0.000000e+00  
 -2.057797e-03 -1.512697e-03 0.000000e+00  
 2.059874e-03 -1.516081e-03 0.000000e+00  
 9.066025e-05 -4.791013e-04 0.000000e+00  
 -9.108437e-05 -4.790355e-04 0.000000e+00  
 1.090242e-03 -8.775583e-04 0.000000e+00  
 -1.089107e-03 -8.759151e-04 0.000000e+00  
 2.647094e-04 -4.600826e-04 0.000000e+00  
 -2.648321e-04 -4.598144e-04 0.000000e+00  
 -2.408568e-03 -1.441569e-03 0.000000e+00  
 2.411081e-03 -1.444534e-03 0.000000e+00  
 1.740700e-03 -1.026049e-03 0.000000e+00  
 -1.738688e-03 -1.023741e-03 0.000000e+00  
 -4.140666e-04 -4.147431e-04 0.000000e+00  
 4.143083e-04 -4.152106e-04 0.000000e+00  
 0.000000e+00 0.000000e+00 0.000000e+00  
 0.000000e+00 0.000000e+00 0.000000e+00  
 0.000000e+00 0.000000e+00 0.000000e+00  
 0.000000e+00 0.000000e+00 0.000000e+00  
 0.000000e+00 0.000000e+00 0.000000e+00  
 1.184662e-03 -6.597451e-04 0.000000e+00  
 -1.183464e-03 -6.581276e-04 0.000000e+00  
 1.994923e-03 -9.967264e-04 0.000000e+00  
 -1.992278e-03 -9.946742e-04 0.000000e+00  
 -5.144477e-04 -3.396395e-04 0.000000e+00  
 5.146609e-04 -3.401122e-04 0.000000e+00  
 0.000000e+00 0.000000e+00 0.000000e+00  
 0.000000e+00 0.000000e+00 0.000000e+00  
 -1.443414e-03 -6.661288e-04 0.000000e+00  
 1.445728e-03 -6.679189e-04 0.000000e+00  
 0.000000e+00 0.000000e+00 0.000000e+00  
 0.000000e+00 0.000000e+00 0.000000e+00  
 -5.509208e-04 -2.388691e-04 0.000000e+00  
 5.505444e-04 -2.392821e-04 0.000000e+00  
 1.640540e-03 -6.596793e-04 0.000000e+00  
 -1.637903e-03 -6.579368e-04 0.000000e+00  
 -1.197877e-03 -4.057923e-04 0.000000e+00  
 1.200460e-03 -4.075943e-04 0.000000e+00  
 0.000000e+00 0.000000e+00 0.000000e+00  
 0.000000e+00 0.000000e+00 0.000000e+00  
 -5.111606e-04 -1.349948e-04 0.000000e+00  
 5.095226e-04 -1.351400e-04 0.000000e+00  
 -1.350666e-03 -4.117549e-04 0.000000e+00  
 1.353366e-03 -4.134295e-04 0.000000e+00  
 1.010087e-03 -2.300257e-04 0.000000e+00  
 -1.006338e-03 -2.277593e-04 0.000000e+00  
 0.000000e+00 0.000000e+00 0.000000e+00  
 0.000000e+00 0.000000e+00 0.000000e+00  
 4.291347e-04 -4.214143e-05 0.000000e+00  
 -4.340590e-04 -4.522922e-05 0.000000e+00  
 -1.134621e-03 -2.377133e-04 0.000000e+00  
 1.137067e-03 -2.408693e-04 0.000000e+00  
 0.000000e+00 0.000000e+00 0.000000e+00  
 0.000000e+00 0.000000e+00 0.000000e+00  
 -8.734417e-04 -1.098294e-04 0.000000e+00  
 7.903455e-04 -5.693882e-05 0.000000e+00  
 9.956257e-04 -1.216762e-04 0.000000e+00  
 -9.890180e-04 -1.185692e-04 0.000000e+00  
 3.342564e-04 2.415725e-05 0.000000e+00  
 -3.370560e-04 2.499047e-05 0.000000e+00  
 0.000000e+00 0.000000e+00 0.000000e+00  
 0.000000e+00 0.000000e+00 0.000000e+00  
 -6.657045e-04 2.902187e-05 0.000000e+00  
 8.703754e-04 -2.027877e-05 0.000000e+00  
 -8.711960e-04 -2.140322e-05 0.000000e+00  
 0.000000e+00 0.000000e+00 0.000000e+00  
 0.000000e+00 0.000000e+00 0.000000e+00  
 2.461734e-04 6.761498e-05 0.000000e+00  
 -2.466361e-04 6.823886e-05 0.000000e+00  
 5.968215e-04 7.131581e-05 0.000000e+00  
 -7.554876e-04 6.382996e-05 0.000000e+00  
 7.564377e-04 6.942906e-05 0.000000e+00  
 0.000000e+00 0.000000e+00 0.000000e+00  
 0.000000e+00 0.000000e+00 0.000000e+00  
 -1.720665e-04 9.098626e-05 0.000000e+00  
 1.743209e-04 9.138083e-05 0.000000e+00  
 -4.878741e-04 1.269123e-04 0.000000e+00  
 0.000000e+00 0.000000e+00 0.000000e+00  
 0.000000e+00 0.000000e+00 0.000000e+00  
 -6.510684e-04 1.324940e-04 0.000000e+00  
 6.489081e-04 1.321675e-04 0.000000e+00  
 4.195206e-04 1.580823e-04 0.000000e+00  
 1.217518e-04 1.023188e-04 0.000000e+00  
 -1.144761e-04 9.952488e-05 0.000000e+00  
 0.000000e+00 0.000000e+00 0.000000e+00  
 0.000000e+00 0.000000e+00 0.000000e+00  
 0.000000e+00 0.000000e+00 0.000000e+00  
 0.000000e+00 0.000000e+00 0.000000e+00  
 0.000000e+00 0.000000e+00 0.000000e+00  
 5.473725e-04 1.874292e-04 0.000000e+00  
 -5.496427e-04 1.826042e-04 0.000000e+00  
 -3.392009e-04 1.828819e-04 0.000000e+00  
 7.251453e-05 1.047057e-04 0.000000e+00  
 -7.120516e-05 1.002249e-04 0.000000e+00  
 2.479937e-04 1.873598e-04 0.000000e+00  
 3.892428e-05 9.984432e-05 0.000000e+00  
 -3.843256e-05 9.795354e-05 0.000000e+00  
 4.563506e-04 2.185990e-04 0.000000e+00  
 -4.593960e-04 2.207258e-04 0.000000e+00  
 -1.231930e-05 9.585697e-05 0.000000e+00  
 1.163868e-05 9.687293e-05 0.000000e+00  
 -2.215094e-04 2.064769e-04 0.000000e+00  
 -3.753500e-04 2.439036e-04 0.000000e+00  
 3.725576e-04 2.454524e-04 0.000000e+00  
 1.614623e-04 2.104442e-04 0.000000e+00  
 -1.303299e-04 2.111138e-04 0.000000e+00  
 2.948036e-04 2.595748e-04 0.000000e+00  
 -3.023868e-04 2.598928e-04 0.000000e+00  
 8.472950e-05 2.094411e-04 0.000000e+00  
 -5.783277e-05 2.092123e-04 0.000000e+00  
 2.361656e-04 2.644840e-04 0.000000e+00  
 -2.365254e-04 2.666345e-04 0.000000e+00  
 1.727799e-05 2.185024e-04 0.000000e+00  
 1.781180e-04 2.679166e-04 0.000000e+00  
 -1.796254e-04 2.708452e-04 0.000000e+00  
 -1.283933e-04 2.705820e-04 0.000000e+00  
 1.306039e-04 2.693631e-04 0.000000e+00  
 8.238119e-05 2.696656e-04 0.000000e+00  
 -8.281091e-05 2.710845e-04 0.000000e+00  
 4.294950e-05 2.695759e-04 0.000000e+00  
 -3.835366e-05 2.701403e-04 0.000000e+00  
 -9.078994e-08 2.697836e-04 0.000000e+00  
  
 