# vtk DataFile Version 1.0 
PolyMesh 
ASCII 
 
DATASET POLYDATA 
 
POINTS 4186 float 
0.000000e+00 -2.000000e+00 0.000000e+00  
 8.888889e-02 -2.000000e+00 0.000000e+00  
 1.777778e-01 -2.000000e+00 0.000000e+00  
 2.666667e-01 -2.000000e+00 0.000000e+00  
 3.555556e-01 -2.000000e+00 0.000000e+00  
 4.444444e-01 -2.000000e+00 0.000000e+00  
 5.333333e-01 -2.000000e+00 0.000000e+00  
 6.222222e-01 -2.000000e+00 0.000000e+00  
 7.111111e-01 -2.000000e+00 0.000000e+00  
 8.000000e-01 -2.000000e+00 0.000000e+00  
 8.888889e-01 -2.000000e+00 0.000000e+00  
 9.777778e-01 -2.000000e+00 0.000000e+00  
 1.066667e+00 -2.000000e+00 0.000000e+00  
 1.155556e+00 -2.000000e+00 0.000000e+00  
 1.244444e+00 -2.000000e+00 0.000000e+00  
 1.333333e+00 -2.000000e+00 0.000000e+00  
 1.422222e+00 -2.000000e+00 0.000000e+00  
 1.511111e+00 -2.000000e+00 0.000000e+00  
 1.600000e+00 -2.000000e+00 0.000000e+00  
 1.688889e+00 -2.000000e+00 0.000000e+00  
 1.777778e+00 -2.000000e+00 0.000000e+00  
 1.866667e+00 -2.000000e+00 0.000000e+00  
 1.955556e+00 -2.000000e+00 0.000000e+00  
 2.044444e+00 -2.000000e+00 0.000000e+00  
 2.133333e+00 -2.000000e+00 0.000000e+00  
 2.222222e+00 -2.000000e+00 0.000000e+00  
 2.311111e+00 -2.000000e+00 0.000000e+00  
 2.400000e+00 -2.000000e+00 0.000000e+00  
 2.488889e+00 -2.000000e+00 0.000000e+00  
 2.577778e+00 -2.000000e+00 0.000000e+00  
 2.666667e+00 -2.000000e+00 0.000000e+00  
 2.755556e+00 -2.000000e+00 0.000000e+00  
 2.844444e+00 -2.000000e+00 0.000000e+00  
 2.933333e+00 -2.000000e+00 0.000000e+00  
 3.022222e+00 -2.000000e+00 0.000000e+00  
 3.111111e+00 -2.000000e+00 0.000000e+00  
 3.200000e+00 -2.000000e+00 0.000000e+00  
 3.288889e+00 -2.000000e+00 0.000000e+00  
 3.377778e+00 -2.000000e+00 0.000000e+00  
 3.466667e+00 -2.000000e+00 0.000000e+00  
 3.555556e+00 -2.000000e+00 0.000000e+00  
 3.644444e+00 -2.000000e+00 0.000000e+00  
 3.733333e+00 -2.000000e+00 0.000000e+00  
 3.822222e+00 -2.000000e+00 0.000000e+00  
 3.911111e+00 -2.000000e+00 0.000000e+00  
 4.000000e+00 -2.000000e+00 0.000000e+00  
 4.088889e+00 -2.000000e+00 0.000000e+00  
 4.177778e+00 -2.000000e+00 0.000000e+00  
 4.266667e+00 -2.000000e+00 0.000000e+00  
 4.355556e+00 -2.000000e+00 0.000000e+00  
 4.444444e+00 -2.000000e+00 0.000000e+00  
 4.533333e+00 -2.000000e+00 0.000000e+00  
 4.622222e+00 -2.000000e+00 0.000000e+00  
 4.711111e+00 -2.000000e+00 0.000000e+00  
 4.800000e+00 -2.000000e+00 0.000000e+00  
 4.888889e+00 -2.000000e+00 0.000000e+00  
 4.977778e+00 -2.000000e+00 0.000000e+00  
 5.066667e+00 -2.000000e+00 0.000000e+00  
 5.155556e+00 -2.000000e+00 0.000000e+00  
 5.244444e+00 -2.000000e+00 0.000000e+00  
 5.333333e+00 -2.000000e+00 0.000000e+00  
 5.422222e+00 -2.000000e+00 0.000000e+00  
 5.511111e+00 -2.000000e+00 0.000000e+00  
 5.600000e+00 -2.000000e+00 0.000000e+00  
 5.688889e+00 -2.000000e+00 0.000000e+00  
 5.777778e+00 -2.000000e+00 0.000000e+00  
 5.866667e+00 -2.000000e+00 0.000000e+00  
 5.955556e+00 -2.000000e+00 0.000000e+00  
 6.044444e+00 -2.000000e+00 0.000000e+00  
 6.133333e+00 -2.000000e+00 0.000000e+00  
 6.222222e+00 -2.000000e+00 0.000000e+00  
 6.311111e+00 -2.000000e+00 0.000000e+00  
 6.400000e+00 -2.000000e+00 0.000000e+00  
 6.488889e+00 -2.000000e+00 0.000000e+00  
 6.577778e+00 -2.000000e+00 0.000000e+00  
 6.666667e+00 -2.000000e+00 0.000000e+00  
 6.755556e+00 -2.000000e+00 0.000000e+00  
 6.844444e+00 -2.000000e+00 0.000000e+00  
 6.933333e+00 -2.000000e+00 0.000000e+00  
 7.022222e+00 -2.000000e+00 0.000000e+00  
 7.111111e+00 -2.000000e+00 0.000000e+00  
 7.200000e+00 -2.000000e+00 0.000000e+00  
 7.288889e+00 -2.000000e+00 0.000000e+00  
 7.377778e+00 -2.000000e+00 0.000000e+00  
 7.466667e+00 -2.000000e+00 0.000000e+00  
 7.555556e+00 -2.000000e+00 0.000000e+00  
 7.644444e+00 -2.000000e+00 0.000000e+00  
 7.733333e+00 -2.000000e+00 0.000000e+00  
 7.822222e+00 -2.000000e+00 0.000000e+00  
 7.911111e+00 -2.000000e+00 0.000000e+00  
 8.000000e+00 -2.000000e+00 0.000000e+00  
 0.000000e+00 -1.911111e+00 0.000000e+00  
 8.888889e-02 -1.911111e+00 0.000000e+00  
 1.777778e-01 -1.911111e+00 0.000000e+00  
 2.666667e-01 -1.911111e+00 0.000000e+00  
 3.555556e-01 -1.911111e+00 0.000000e+00  
 4.444444e-01 -1.911111e+00 0.000000e+00  
 5.333333e-01 -1.911111e+00 0.000000e+00  
 6.222222e-01 -1.911111e+00 0.000000e+00  
 7.111111e-01 -1.911111e+00 0.000000e+00  
 8.000000e-01 -1.911111e+00 0.000000e+00  
 8.888889e-01 -1.911111e+00 0.000000e+00  
 9.777778e-01 -1.911111e+00 0.000000e+00  
 1.066667e+00 -1.911111e+00 0.000000e+00  
 1.155556e+00 -1.911111e+00 0.000000e+00  
 1.244444e+00 -1.911111e+00 0.000000e+00  
 1.333333e+00 -1.911111e+00 0.000000e+00  
 1.422222e+00 -1.911111e+00 0.000000e+00  
 1.511111e+00 -1.911111e+00 0.000000e+00  
 1.600000e+00 -1.911111e+00 0.000000e+00  
 1.688889e+00 -1.911111e+00 0.000000e+00  
 1.777778e+00 -1.911111e+00 0.000000e+00  
 1.866667e+00 -1.911111e+00 0.000000e+00  
 1.955556e+00 -1.911111e+00 0.000000e+00  
 2.044444e+00 -1.911111e+00 0.000000e+00  
 2.133333e+00 -1.911111e+00 0.000000e+00  
 2.222222e+00 -1.911111e+00 0.000000e+00  
 2.311111e+00 -1.911111e+00 0.000000e+00  
 2.400000e+00 -1.911111e+00 0.000000e+00  
 2.488889e+00 -1.911111e+00 0.000000e+00  
 2.577778e+00 -1.911111e+00 0.000000e+00  
 2.666667e+00 -1.911111e+00 0.000000e+00  
 2.755556e+00 -1.911111e+00 0.000000e+00  
 2.844444e+00 -1.911111e+00 0.000000e+00  
 2.933333e+00 -1.911111e+00 0.000000e+00  
 3.022222e+00 -1.911111e+00 0.000000e+00  
 3.111111e+00 -1.911111e+00 0.000000e+00  
 3.200000e+00 -1.911111e+00 0.000000e+00  
 3.288889e+00 -1.911111e+00 0.000000e+00  
 3.377778e+00 -1.911111e+00 0.000000e+00  
 3.466667e+00 -1.911111e+00 0.000000e+00  
 3.555556e+00 -1.911111e+00 0.000000e+00  
 3.644444e+00 -1.911111e+00 0.000000e+00  
 3.733333e+00 -1.911111e+00 0.000000e+00  
 3.822222e+00 -1.911111e+00 0.000000e+00  
 3.911111e+00 -1.911111e+00 0.000000e+00  
 4.000000e+00 -1.911111e+00 0.000000e+00  
 4.088889e+00 -1.911111e+00 0.000000e+00  
 4.177778e+00 -1.911111e+00 0.000000e+00  
 4.266667e+00 -1.911111e+00 0.000000e+00  
 4.355556e+00 -1.911111e+00 0.000000e+00  
 4.444444e+00 -1.911111e+00 0.000000e+00  
 4.533333e+00 -1.911111e+00 0.000000e+00  
 4.622222e+00 -1.911111e+00 0.000000e+00  
 4.711111e+00 -1.911111e+00 0.000000e+00  
 4.800000e+00 -1.911111e+00 0.000000e+00  
 4.888889e+00 -1.911111e+00 0.000000e+00  
 4.977778e+00 -1.911111e+00 0.000000e+00  
 5.066667e+00 -1.911111e+00 0.000000e+00  
 5.155556e+00 -1.911111e+00 0.000000e+00  
 5.244444e+00 -1.911111e+00 0.000000e+00  
 5.333333e+00 -1.911111e+00 0.000000e+00  
 5.422222e+00 -1.911111e+00 0.000000e+00  
 5.511111e+00 -1.911111e+00 0.000000e+00  
 5.600000e+00 -1.911111e+00 0.000000e+00  
 5.688889e+00 -1.911111e+00 0.000000e+00  
 5.777778e+00 -1.911111e+00 0.000000e+00  
 5.866667e+00 -1.911111e+00 0.000000e+00  
 5.955556e+00 -1.911111e+00 0.000000e+00  
 6.044444e+00 -1.911111e+00 0.000000e+00  
 6.133333e+00 -1.911111e+00 0.000000e+00  
 6.222222e+00 -1.911111e+00 0.000000e+00  
 6.311111e+00 -1.911111e+00 0.000000e+00  
 6.400000e+00 -1.911111e+00 0.000000e+00  
 6.488889e+00 -1.911111e+00 0.000000e+00  
 6.577778e+00 -1.911111e+00 0.000000e+00  
 6.666667e+00 -1.911111e+00 0.000000e+00  
 6.755556e+00 -1.911111e+00 0.000000e+00  
 6.844444e+00 -1.911111e+00 0.000000e+00  
 6.933333e+00 -1.911111e+00 0.000000e+00  
 7.022222e+00 -1.911111e+00 0.000000e+00  
 7.111111e+00 -1.911111e+00 0.000000e+00  
 7.200000e+00 -1.911111e+00 0.000000e+00  
 7.288889e+00 -1.911111e+00 0.000000e+00  
 7.377778e+00 -1.911111e+00 0.000000e+00  
 7.466667e+00 -1.911111e+00 0.000000e+00  
 7.555556e+00 -1.911111e+00 0.000000e+00  
 7.644444e+00 -1.911111e+00 0.000000e+00  
 7.733333e+00 -1.911111e+00 0.000000e+00  
 7.822222e+00 -1.911111e+00 0.000000e+00  
 7.911111e+00 -1.911111e+00 0.000000e+00  
 8.000000e+00 -1.911111e+00 0.000000e+00  
 0.000000e+00 -1.822222e+00 0.000000e+00  
 8.888889e-02 -1.822222e+00 0.000000e+00  
 1.777778e-01 -1.822222e+00 0.000000e+00  
 2.666667e-01 -1.822222e+00 0.000000e+00  
 3.555556e-01 -1.822222e+00 0.000000e+00  
 4.444444e-01 -1.822222e+00 0.000000e+00  
 5.333333e-01 -1.822222e+00 0.000000e+00  
 6.222222e-01 -1.822222e+00 0.000000e+00  
 7.111111e-01 -1.822222e+00 0.000000e+00  
 8.000000e-01 -1.822222e+00 0.000000e+00  
 8.888889e-01 -1.822222e+00 0.000000e+00  
 9.777778e-01 -1.822222e+00 0.000000e+00  
 1.066667e+00 -1.822222e+00 0.000000e+00  
 1.155556e+00 -1.822222e+00 0.000000e+00  
 1.244444e+00 -1.822222e+00 0.000000e+00  
 1.333333e+00 -1.822222e+00 0.000000e+00  
 1.422222e+00 -1.822222e+00 0.000000e+00  
 1.511111e+00 -1.822222e+00 0.000000e+00  
 1.600000e+00 -1.822222e+00 0.000000e+00  
 1.688889e+00 -1.822222e+00 0.000000e+00  
 1.777778e+00 -1.822222e+00 0.000000e+00  
 1.866667e+00 -1.822222e+00 0.000000e+00  
 1.955556e+00 -1.822222e+00 0.000000e+00  
 2.044444e+00 -1.822222e+00 0.000000e+00  
 2.133333e+00 -1.822222e+00 0.000000e+00  
 2.222222e+00 -1.822222e+00 0.000000e+00  
 2.311111e+00 -1.822222e+00 0.000000e+00  
 2.400000e+00 -1.822222e+00 0.000000e+00  
 2.488889e+00 -1.822222e+00 0.000000e+00  
 2.577778e+00 -1.822222e+00 0.000000e+00  
 2.666667e+00 -1.822222e+00 0.000000e+00  
 2.755556e+00 -1.822222e+00 0.000000e+00  
 2.844444e+00 -1.822222e+00 0.000000e+00  
 2.933333e+00 -1.822222e+00 0.000000e+00  
 3.022222e+00 -1.822222e+00 0.000000e+00  
 3.111111e+00 -1.822222e+00 0.000000e+00  
 3.200000e+00 -1.822222e+00 0.000000e+00  
 3.288889e+00 -1.822222e+00 0.000000e+00  
 3.377778e+00 -1.822222e+00 0.000000e+00  
 3.466667e+00 -1.822222e+00 0.000000e+00  
 3.555556e+00 -1.822222e+00 0.000000e+00  
 3.644444e+00 -1.822222e+00 0.000000e+00  
 3.733333e+00 -1.822222e+00 0.000000e+00  
 3.822222e+00 -1.822222e+00 0.000000e+00  
 3.911111e+00 -1.822222e+00 0.000000e+00  
 4.000000e+00 -1.822222e+00 0.000000e+00  
 4.088889e+00 -1.822222e+00 0.000000e+00  
 4.177778e+00 -1.822222e+00 0.000000e+00  
[...]
 POINT_DATA 4186 
 VECTORS Displacement float 
 1.397500e-04 -1.170000e-04 0.000000e+00  
 1.156195e-04 -1.162371e-04 0.000000e+00  
 9.175835e-05 -1.165412e-04 0.000000e+00  
 6.816667e-05 -1.179000e-04 0.000000e+00  
 4.484457e-05 -1.203014e-04 0.000000e+00  
 2.179208e-05 -1.237334e-04 0.000000e+00  
 -9.908073e-07 -1.281840e-04 0.000000e+00  
 -2.350408e-05 -1.336412e-04 0.000000e+00  
 -4.574773e-05 -1.400930e-04 0.000000e+00  
 -6.772176e-05 -1.475275e-04 0.000000e+00  
 -8.942617e-05 -1.559326e-04 0.000000e+00  
 -1.108610e-04 -1.652964e-04 0.000000e+00  
 -1.320261e-04 -1.756069e-04 0.000000e+00  
 -1.529217e-04 -1.868520e-04 0.000000e+00  
 -1.735476e-04 -1.990199e-04 0.000000e+00  
 -1.939039e-04 -2.120985e-04 0.000000e+00  
 -2.139906e-04 -2.260758e-04 0.000000e+00  
 -2.338076e-04 -2.409398e-04 0.000000e+00  
 -2.533551e-04 -2.566786e-04 0.000000e+00  
 -2.726329e-04 -2.732803e-04 0.000000e+00  
 -2.916411e-04 -2.907327e-04 0.000000e+00  
 -3.103796e-04 -3.090239e-04 0.000000e+00  
 -3.288486e-04 -3.281420e-04 0.000000e+00  
 -3.470479e-04 -3.480749e-04 0.000000e+00  
 -3.649776e-04 -3.688107e-04 0.000000e+00  
 -3.826377e-04 -3.903374e-04 0.000000e+00  
 -4.000282e-04 -4.126429e-04 0.000000e+00  
 -4.171491e-04 -4.357154e-04 0.000000e+00  
 -4.340003e-04 -4.595429e-04 0.000000e+00  
 -4.505819e-04 -4.841132e-04 0.000000e+00  
 -4.668939e-04 -5.094146e-04 0.000000e+00  
 -4.829363e-04 -5.354349e-04 0.000000e+00  
 -4.987090e-04 -5.621623e-04 0.000000e+00  
 -5.142121e-04 -5.895846e-04 0.000000e+00  
 -5.294456e-04 -6.176900e-04 0.000000e+00  
 -5.444095e-04 -6.464664e-04 0.000000e+00  
 -5.591038e-04 -6.759020e-04 0.000000e+00  
 -5.735285e-04 -7.059846e-04 0.000000e+00  
 -5.876835e-04 -7.367023e-04 0.000000e+00  
 -6.015689e-04 -7.680431e-04 0.000000e+00  
 -6.151847e-04 -7.999951e-04 0.000000e+00  
 -6.285309e-04 -8.325462e-04 0.000000e+00  
 -6.416074e-04 -8.656845e-04 0.000000e+00  
 -6.544143e-04 -8.993980e-04 0.000000e+00  
 -6.669517e-04 -9.336746e-04 0.000000e+00  
 -6.792194e-04 -9.685026e-04 0.000000e+00  
 -6.912174e-04 -1.003870e-03 0.000000e+00  
 -7.029459e-04 -1.039764e-03 0.000000e+00  
 -7.144047e-04 -1.076174e-03 0.000000e+00  
 -7.255939e-04 -1.113087e-03 0.000000e+00  
 -7.365135e-04 -1.150491e-03 0.000000e+00  
 -7.471635e-04 -1.188375e-03 0.000000e+00  
 -7.575439e-04 -1.226726e-03 0.000000e+00  
 -7.676546e-04 -1.265532e-03 0.000000e+00  
 -7.774957e-04 -1.304781e-03 0.000000e+00  
 -7.870672e-04 -1.344463e-03 0.000000e+00  
 -7.963691e-04 -1.384563e-03 0.000000e+00  
 -8.054014e-04 -1.425071e-03 0.000000e+00  
 -8.141640e-04 -1.465974e-03 0.000000e+00  
 -8.226571e-04 -1.507261e-03 0.000000e+00  
 -8.308805e-04 -1.548919e-03 0.000000e+00  
 -8.388343e-04 -1.590937e-03 0.000000e+00  
 -8.465185e-04 -1.633302e-03 0.000000e+00  
 -8.539330e-04 -1.676003e-03 0.000000e+00  
 -8.610780e-04 -1.719027e-03 0.000000e+00  
 -8.679534e-04 -1.762363e-03 0.000000e+00  
 -8.745591e-04 -1.805999e-03 0.000000e+00  
 -8.808952e-04 -1.849922e-03 0.000000e+00  
 -8.869618e-04 -1.894120e-03 0.000000e+00  
 -8.927587e-04 -1.938583e-03 0.000000e+00  
 -8.982861e-04 -1.983297e-03 0.000000e+00  
 -9.035438e-04 -2.028250e-03 0.000000e+00  
 -9.085320e-04 -2.073432e-03 0.000000e+00  
 -9.132506e-04 -2.118829e-03 0.000000e+00  
 -9.176996e-04 -2.164429e-03 0.000000e+00  
 -9.218791e-04 -2.210222e-03 0.000000e+00  
 -9.257890e-04 -2.256194e-03 0.000000e+00  
 -9.294293e-04 -2.302334e-03 0.000000e+00  
 -9.328002e-04 -2.348630e-03 0.000000e+00  
 -9.359016e-04 -2.395070e-03 0.000000e+00  
 -9.387335e-04 -2.441642e-03 0.000000e+00  
 -9.412959e-04 -2.488334e-03 0.000000e+00  
 -9.435890e-04 -2.535133e-03 0.000000e+00  
 -9.456128e-04 -2.582029e-03 0.000000e+00  
 -9.473674e-04 -2.629010e-03 0.000000e+00  
 -9.488529e-04 -2.676063e-03 0.000000e+00  
 -9.500697e-04 -2.723177e-03 0.000000e+00  
 -9.510181e-04 -2.770340e-03 0.000000e+00  
 -9.516991e-04 -2.817543e-03 0.000000e+00  
 -9.521135e-04 -2.864776e-03 0.000000e+00  
 -9.522619e-04 -2.912066e-03 0.000000e+00  
 1.381274e-04 -1.068311e-04 0.000000e+00  
 1.150690e-04 -1.061816e-04 0.000000e+00  
 9.226830e-05 -1.065987e-04 0.000000e+00  
 6.972519e-05 -1.080704e-04 0.000000e+00  
 4.743968e-05 -1.105848e-04 0.000000e+00  
 2.541178e-05 -1.141298e-04 0.000000e+00  
 3.641499e-06 -1.186934e-04 0.000000e+00  
 -1.787116e-05 -1.242636e-04 0.000000e+00  
 -3.912618e-05 -1.308284e-04 0.000000e+00  
 -6.012358e-05 -1.383758e-04 0.000000e+00  
 -8.086333e-05 -1.468940e-04 0.000000e+00  
 -1.013455e-04 -1.563707e-04 0.000000e+00  
 -1.215699e-04 -1.667942e-04 0.000000e+00  
 -1.415368e-04 -1.781523e-04 0.000000e+00  
 -1.612460e-04 -1.904331e-04 0.000000e+00  
 -1.806976e-04 -2.036247e-04 0.000000e+00  
 -1.998915e-04 -2.177150e-04 0.000000e+00  
 -2.188278e-04 -2.326920e-04 0.000000e+00  
 -2.375065e-04 -2.485438e-04 0.000000e+00  
 -2.559275e-04 -2.652584e-04 0.000000e+00  
 -2.740909e-04 -2.828238e-04 0.000000e+00  
 -2.919966e-04 -3.012280e-04 0.000000e+00  
 -3.096447e-04 -3.204591e-04 0.000000e+00  
 -3.270352e-04 -3.405050e-04 0.000000e+00  
 -3.441680e-04 -3.613538e-04 0.000000e+00  
 -3.610432e-04 -3.829934e-04 0.000000e+00  
 -3.776608e-04 -4.054120e-04 0.000000e+00  
 -3.940207e-04 -4.285975e-04 0.000000e+00  
 -4.101230e-04 -4.525379e-04 0.000000e+00  
 -4.259676e-04 -4.772212e-04 0.000000e+00  
 -4.415547e-04 -5.026356e-04 0.000000e+00  
 -4.568840e-04 -5.287689e-04 0.000000e+00  
 -4.719558e-04 -5.556092e-04 0.000000e+00  
 -4.867699e-04 -5.831446e-04 0.000000e+00  
 -5.013263e-04 -6.113629e-04 0.000000e+00  
 -5.156252e-04 -6.402524e-04 0.000000e+00  
 -5.296664e-04 -6.698009e-04 0.000000e+00  
 -5.434499e-04 -6.999964e-04 0.000000e+00  
 -5.569758e-04 -7.308271e-04 0.000000e+00  
 -5.702441e-04 -7.622809e-04 0.000000e+00  
 -5.832548e-04 -7.943459e-04 0.000000e+00  
 -5.960078e-04 -8.270100e-04 0.000000e+00  
 -6.085031e-04 -8.602613e-04 0.000000e+00  
 -6.207409e-04 -8.940877e-04 0.000000e+00  
 -6.327210e-04 -9.284774e-04 0.000000e+00  
 -6.444434e-04 -9.634183e-04 0.000000e+00  
 -6.559083e-04 -9.988984e-04 0.000000e+00  
 -6.671155e-04 -1.034906e-03 0.000000e+00  
 -6.780650e-04 -1.071428e-03 0.000000e+00  
 -6.887569e-04 -1.108454e-03 0.000000e+00  
 -6.991912e-04 -1.145972e-03 0.000000e+00  
 -7.093679e-04 -1.183968e-03 0.000000e+00  
 -7.192869e-04 -1.222432e-03 0.000000e+00  
 -7.289482e-04 -1.261351e-03 0.000000e+00  
 -7.383520e-04 -1.300714e-03 0.000000e+00  
 -7.474981e-04 -1.340508e-03 0.000000e+00  
 -7.563866e-04 -1.380722e-03 0.000000e+00  
 -7.650174e-04 -1.421342e-03 0.000000e+00  
 -7.733906e-04 -1.462359e-03 0.000000e+00  
 -7.815062e-04 -1.503759e-03 0.000000e+00  
 -7.893641e-04 -1.545530e-03 0.000000e+00  
 -7.969644e-04 -1.587660e-03 0.000000e+00  
 -8.043071e-04 -1.630139e-03 0.000000e+00  
 -8.113921e-04 -1.672952e-03 0.000000e+00  
 -8.182195e-04 -1.716090e-03 0.000000e+00  
 -8.247893e-04 -1.759539e-03 0.000000e+00  
 -8.311014e-04 -1.803287e-03 0.000000e+00  
 -8.371560e-04 -1.847323e-03 0.000000e+00  
 -8.429529e-04 -1.891635e-03 0.000000e+00  
 -8.484922e-04 -1.936210e-03 0.000000e+00  
 -8.537739e-04 -1.981037e-03 0.000000e+00  
 -8.587979e-04 -2.026104e-03 0.000000e+00  
 -8.635644e-04 -2.071398e-03 0.000000e+00  
 -8.680733e-04 -2.116908e-03 0.000000e+00  
 -8.723245e-04 -2.162621e-03 0.000000e+00  
 -8.763182e-04 -2.208527e-03 0.000000e+00  
 -8.800543e-04 -2.254612e-03 0.000000e+00  
 -8.835328e-04 -2.300865e-03 0.000000e+00  
 -8.867538e-04 -2.347274e-03 0.000000e+00  
 -8.897172e-04 -2.393827e-03 0.000000e+00  
 -8.924231e-04 -2.440512e-03 0.000000e+00  
 -8.948715e-04 -2.487316e-03 0.000000e+00  
 -8.970624e-04 -2.534229e-03 0.000000e+00  
 -8.989958e-04 -2.581238e-03 0.000000e+00  
 -9.006719e-04 -2.628331e-03 0.000000e+00  
 -9.020905e-04 -2.675497e-03 0.000000e+00  
 -9.032516e-04 -2.722723e-03 0.000000e+00  
 -9.041552e-04 -2.770000e-03 0.000000e+00  
 -9.048006e-04 -2.817315e-03 0.000000e+00  
 -9.051859e-04 -2.864663e-03 0.000000e+00  
 -9.053191e-04 -2.912032e-03 0.000000e+00  
 1.358792e-04 -9.712444e-05 0.000000e+00  
 1.138931e-04 -9.658301e-05 0.000000e+00  
 9.215278e-05 -9.710804e-05 0.000000e+00  
 7.065815e-05 -9.868765e-05 0.000000e+00  
 4.940917e-05 -1.013099e-04 0.000000e+00  
 2.840584e-05 -1.049627e-04 0.000000e+00  
 7.648141e-06 -1.096341e-04 0.000000e+00  
 -1.286391e-05 -1.153122e-04 0.000000e+00  
 -3.313032e-05 -1.219849e-04 0.000000e+00  
 -5.315108e-05 -1.296402e-04 0.000000e+00  
 -7.292619e-05 -1.382661e-04 0.000000e+00  
 -9.245564e-05 -1.478507e-04 0.000000e+00  
 -1.117394e-04 -1.583820e-04 0.000000e+00  
 -1.307776e-04 -1.698480e-04 0.000000e+00  
 -1.495701e-04 -1.822367e-04 0.000000e+00  
 -1.681169e-04 -1.955361e-04 0.000000e+00  
 -1.864181e-04 -2.097342e-04 0.000000e+00  
 -2.044737e-04 -2.248191e-04 0.000000e+00  
 -2.222835e-04 -2.407788e-04 0.000000e+00  
 -2.398478e-04 -2.576012e-04 0.000000e+00  
 -2.571664e-04 -2.752745e-04 0.000000e+00  
 -2.742393e-04 -2.937865e-04 0.000000e+00  
 -2.910665e-04 -3.131254e-04 0.000000e+00  
 -3.076481e-04 -3.332792e-04 0.000000e+00  
 -3.239841e-04 -3.542358e-04 0.000000e+00  
 -3.400744e-04 -3.759833e-04 0.000000e+00  
 -3.559191e-04 -3.985097e-04 0.000000e+00  
 -3.715181e-04 -4.218030e-04 0.000000e+00  
 -3.868714e-04 -4.458513e-04 0.000000e+00  
 -4.019791e-04 -4.706425e-04 0.000000e+00  
 -4.168411e-04 -4.961647e-04 0.000000e+00  
 -4.314575e-04 -5.224059e-04 0.000000e+00  
 -4.458282e-04 -5.493540e-04 0.000000e+00  
 -4.599533e-04 -5.769972e-04 0.000000e+00  
 -4.738327e-04 -6.053234e-04 0.000000e+00  
 -4.874665e-04 -6.343207e-04 0.000000e+00  
 -5.008546e-04 -6.639771e-04 0.000000e+00  
 -5.139971e-04 -6.942805e-04 0.000000e+00  
 -5.268939e-04 -7.252190e-04 0.000000e+00  
 -5.395450e-04 -7.567807e-04 0.000000e+00  
 -5.519505e-04 -7.889535e-04 0.000000e+00  
 -5.641104e-04 -8.217255e-04 0.000000e+00  
 -5.760246e-04 -8.550846e-04 0.000000e+00  
 -5.876931e-04 -8.890189e-04 0.000000e+00  
 -5.991160e-04 -9.235164e-04 0.000000e+00  
 -6.102932e-04 -9.585651e-04 0.000000e+00  
 -6.212248e-04 -9.941531e-04 0.000000e+00  
 -6.319107e-04 -1.030268e-03 0.000000e+00  
 -6.423510e-04 -1.066899e-03 0.000000e+00  
 -6.525456e-04 -1.104033e-03 0.000000e+00  
 -6.624946e-04 -1.141658e-03 0.000000e+00  
 -6.721979e-04 -1.179762e-03 0.000000e+00  
 -6.816556e-04 -1.218334e-03 0.000000e+00  
 -6.908676e-04 -1.257361e-03 0.000000e+00  
 -6.998339e-04 -1.296832e-03 0.000000e+00  
 -7.085546e-04 -1.336733e-03 0.000000e+00  
 -7.170297e-04 -1.377055e-03 0.000000e+00  
 -7.252591e-04 -1.417783e-03 0.000000e+00  
 -7.332428e-04 -1.458908e-03 0.000000e+00  
 -7.409809e-04 -1.500415e-03 0.000000e+00  
 -7.484734e-04 -1.542294e-03 0.000000e+00  
 -7.557202e-04 -1.584533e-03 0.000000e+00  
 -7.627213e-04 -1.627119e-03 0.000000e+00  
 -7.694768e-04 -1.670041e-03 0.000000e+00  
 -7.759867e-04 -1.713286e-03 0.000000e+00  
 -7.822509e-04 -1.756842e-03 0.000000e+00  
 -7.882695e-04 -1.800699e-03 0.000000e+00  
 -7.940424e-04 -1.844843e-03 0.000000e+00  
 -7.995697e-04 -1.889262e-03 0.000000e+00  
 -8.048513e-04 -1.933945e-03 0.000000e+00  
 -8.098873e-04 -1.978880e-03 0.000000e+00  
 -8.146777e-04 -2.024054e-03 0.000000e+00  
 -8.192224e-04 -2.069456e-03 0.000000e+00  
 -8.235215e-04 -2.115074e-03 0.000000e+00  
 -8.275750e-04 -2.160896e-03 0.000000e+00  
 -8.313829e-04 -2.206909e-03 0.000000e+00  
 -8.349451e-04 -2.253102e-03 0.000000e+00  
 -8.382618e-04 -2.299463e-03 0.000000e+00  
 -8.413328e-04 -2.345980e-03 0.000000e+00  
 -8.441583e-04 -2.392640e-03 0.000000e+00  
 -8.467381e-04 -2.439433e-03 0.000000e+00  
 -8.490723e-04 -2.486345e-03 0.000000e+00  
 -8.511610e-04 -2.533366e-03 0.000000e+00  
 -8.530040e-04 -2.580483e-03 0.000000e+00  
 -8.546014e-04 -2.627684e-03 0.000000e+00  
 -8.559530e-04 -2.674957e-03 0.000000e+00  
 -8.570587e-04 -2.722292e-03 0.000000e+00  
 -8.579183e-04 -2.769676e-03 0.000000e+00  
 -8.585314e-04 -2.817099e-03 0.000000e+00  
 -8.588998e-04 -2.864551e-03 0.000000e+00  
 -8.590263e-04 -2.912013e-03 0.000000e+00  
 1.330343e-04 -8.788000e-05 0.000000e+00  
 1.121207e-04 -8.744140e-05 0.000000e+00  
 9.144078e-05 -8.806926e-05 0.000000e+00  
 7.099462e-05 -8.975164e-05 0.000000e+00  
 5.078215e-05 -9.247660e-05 0.000000e+00  
 3.080336e-05 -9.623215e-05 0.000000e+00  
 1.105823e-05 -1.010063e-04 0.000000e+00  
 -8.453233e-06 -1.067871e-04 0.000000e+00  
 -2.773103e-05 -1.135624e-04 0.000000e+00  
 -4.677516e-05 -1.213205e-04 0.000000e+00  
 -6.558562e-05 -1.300491e-04 0.000000e+00  
 -8.416242e-05 -1.397365e-04 0.000000e+00  
 -1.025055e-04 -1.503705e-04 0.000000e+00  
 -1.206150e-04 -1.619392e-04 0.000000e+00  
 -1.384908e-04 -1.744306e-04 0.000000e+00  
 -1.561329e-04 -1.878327e-04 0.000000e+00  
 -1.735413e-04 -2.021335e-04 0.000000e+00  
 -1.907161e-04 -2.173211e-04 0.000000e+00  
 -2.076572e-04 -2.333835e-04 0.000000e+00  
 -2.243647e-04 -2.503087e-04 0.000000e+00  
 -2.408384e-04 -2.680846e-04 0.000000e+00  
 -2.570785e-04 -2.866994e-04 0.000000e+00  
 -2.730849e-04 -3.061410e-04 0.000000e+00  
 -2.888577e-04 -3.263975e-04 0.000000e+00  
 -3.043968e-04 -3.474568e-04 0.000000e+00  
 -3.197022e-04 -3.693070e-04 0.000000e+00  
 -3.347739e-04 -3.919361e-04 0.000000e+00  
 -3.496120e-04 -4.153322e-04 0.000000e+00  
 -3.642164e-04 -4.394831e-04 0.000000e+00  
 -3.785871e-04 -4.643771e-04 0.000000e+00  
 -3.927242e-04 -4.900020e-04 0.000000e+00  
 -4.066276e-04 -5.163458e-04 0.000000e+00  
 -4.202973e-04 -5.433967e-04 0.000000e+00  
 -4.337333e-04 -5.711426e-04 0.000000e+00  
 -4.469357e-04 -5.995716e-04 0.000000e+00  
 -4.599044e-04 -6.286716e-04 0.000000e+00  
 -4.726394e-04 -6.584306e-04 0.000000e+00  
 -4.851408e-04 -6.888368e-04 0.000000e+00  
 -4.974085e-04 -7.198780e-04 0.000000e+00  
 -5.094425e-04 -7.515424e-04 0.000000e+00  
 -5.212429e-04 -7.838179e-04 0.000000e+00  
 -5.328096e-04 -8.166926e-04 0.000000e+00  
 -5.441426e-04 -8.501544e-04 0.000000e+00  
 -5.552419e-04 -8.841914e-04 0.000000e+00  
 -5.661076e-04 -9.187916e-04 0.000000e+00  
 -5.767396e-04 -9.539431e-04 0.000000e+00  
 -5.871379e-04 -9.896338e-04 0.000000e+00  
 -5.973026e-04 -1.025852e-03 0.000000e+00  
 -6.072336e-04 -1.062585e-03 0.000000e+00  
 -6.169309e-04 -1.099821e-03 0.000000e+00  
 -6.263945e-04 -1.137549e-03 0.000000e+00  
 -6.356245e-04 -1.175756e-03 0.000000e+00  
 -6.446208e-04 -1.214431e-03 0.000000e+00  
 -6.533835e-04 -1.253561e-03 0.000000e+00  
 -6.619125e-04 -1.293134e-03 0.000000e+00  
 -6.702078e-04 -1.333139e-03 0.000000e+00  
 -6.782694e-04 -1.373563e-03 0.000000e+00  
 -6.860974e-04 -1.414394e-03 0.000000e+00  
 -6.936917e-04 -1.455621e-03 0.000000e+00  
 -7.010523e-04 -1.497231e-03 0.000000e+00  
 -7.081792e-04 -1.539213e-03 0.000000e+00  
 -7.150725e-04 -1.581554e-03 0.000000e+00  
 -7.217322e-04 -1.624243e-03 0.000000e+00  
 -7.281581e-04 -1.667267e-03 0.000000e+00  
 -7.343504e-04 -1.710615e-03 0.000000e+00  
 -7.403090e-04 -1.754275e-03 0.000000e+00  
 -7.460340e-04 -1.798234e-03 0.000000e+00  
 -7.515253e-04 -1.842480e-03 0.000000e+00  
 -7.567830e-04 -1.887002e-03 0.000000e+00  
 -7.618069e-04 -1.931788e-03 0.000000e+00  
 -7.665973e-04 -1.976826e-03 0.000000e+00  
 -7.711539e-04 -2.022103e-03 0.000000e+00  
 -7.754769e-04 -2.067608e-03 0.000000e+00  
 -7.795663e-04 -2.113328e-03 0.000000e+00  
 -7.834220e-04 -2.159252e-03 0.000000e+00  
 -7.870441e-04 -2.205368e-03 0.000000e+00  
 -7.904325e-04 -2.251664e-03 0.000000e+00  
 -7.935872e-04 -2.298128e-03 0.000000e+00  
 -7.965083e-04 -2.344747e-03 0.000000e+00  
 -7.991957e-04 -2.391510e-03 0.000000e+00  
 -8.016495e-04 -2.438406e-03 0.000000e+00  
 -8.038696e-04 -2.485421e-03 0.000000e+00  
 -8.058560e-04 -2.532544e-03 0.000000e+00  
 -8.076087e-04 -2.579764e-03 0.000000e+00  
 -8.091275e-04 -2.627067e-03 0.000000e+00  
 -8.104125e-04 -2.674444e-03 0.000000e+00  
 -8.114635e-04 -2.721881e-03 0.000000e+00  
 -8.122806e-04 -2.769368e-03 0.000000e+00  
 -8.128641e-04 -2.816893e-03 0.000000e+00  
 -8.132155e-04 -2.864442e-03 0.000000e+00  
 -8.133353e-04 -2.912001e-03 0.000000e+00  
 1.296219e-04 -7.909778e-05 0.000000e+00  
 1.097808e-04 -7.875684e-05 0.000000e+00  
 9.016133e-05 -7.948236e-05 0.000000e+00  
 7.076365e-05 -8.126239e-05 0.000000e+00  
 5.158768e-05 -8.408496e-05 0.000000e+00  
 3.263343e-05 -8.793810e-05 0.000000e+00  
 1.390086e-05 -9.280984e-05 0.000000e+00  
 -4.610017e-06 -9.868819e-05 0.000000e+00  
 -2.289921e-05 -1.055612e-04 0.000000e+00  
 -4.096671e-05 -1.134168e-04 0.000000e+00  
 -5.881253e-05 -1.222430e-04 0.000000e+00  
 -7.643667e-05 -1.320279e-04 0.000000e+00  
 -9.383912e-05 -1.427595e-04 0.000000e+00  
 -1.110199e-04 -1.544258e-04 0.000000e+00  
 -1.279790e-04 -1.670147e-04 0.000000e+00  
 -1.447163e-04 -1.805144e-04 0.000000e+00  
 -1.612320e-04 -1.949128e-04 0.000000e+00  
 -1.775261e-04 -2.101980e-04 0.000000e+00  
 -1.935984e-04 -2.263580e-04 0.000000e+00  
 -2.094490e-04 -2.433807e-04 0.000000e+00  
 -2.250780e-04 -2.612543e-04 0.000000e+00  
 -2.404852e-04 -2.799666e-04 0.000000e+00  
 -2.556708e-04 -2.995058e-04 0.000000e+00  
 -2.706347e-04 -3.198598e-04 0.000000e+00  
 -2.853769e-04 -3.410167e-04 0.000000e+00  
 -2.998974e-04 -3.629645e-04 0.000000e+00  
 -3.141963e-04 -3.856912e-04 0.000000e+00  
 -3.282734e-04 -4.091848e-04 0.000000e+00  
 -3.421289e-04 -4.334334e-04 0.000000e+00  
 -3.557626e-04 -4.584249e-04 0.000000e+00  
 -3.691747e-04 -4.841474e-04 0.000000e+00  
 -3.823651e-04 -5.105888e-04 0.000000e+00  
 -3.953338e-04 -5.377373e-04 0.000000e+00  
 -4.080808e-04 -5.655808e-04 0.000000e+00  
 -4.206062e-04 -5.941073e-04 0.000000e+00  
 -4.329098e-04 -6.233048e-04 0.000000e+00  
 -4.449918e-04 -6.531615e-04 0.000000e+00  
 -4.568520e-04 -6.836652e-04 0.000000e+00  
 -4.684906e-04 -7.148040e-04 0.000000e+00  
 -4.799075e-04 -7.465660e-04 0.000000e+00  
 -4.911027e-04 -7.789391e-04 0.000000e+00  
 -5.020762e-04 -8.119113e-04 0.000000e+00  
 -5.128281e-04 -8.454707e-04 0.000000e+00  
 -5.233582e-04 -8.796053e-04 0.000000e+00  
 -5.336667e-04 -9.143031e-04 0.000000e+00  
 -5.437534e-04 -9.495521e-04 0.000000e+00  
 -5.536185e-04 -9.853404e-04 0.000000e+00  
 -5.632619e-04 -1.021656e-03 0.000000e+00  
 -5.726836e-04 -1.058487e-03 0.000000e+00  
 -5.818837e-04 -1.095821e-03 0.000000e+00  
 -5.908620e-04 -1.133646e-03 0.000000e+00  
 -5.996186e-04 -1.171951e-03 0.000000e+00  
 -6.081536e-04 -1.210723e-03 0.000000e+00  
 -6.164669e-04 -1.249950e-03 0.000000e+00  
 -6.245585e-04 -1.289621e-03 0.000000e+00  
 -6.324284e-04 -1.329723e-03 0.000000e+00  
 -6.400766e-04 -1.370245e-03 0.000000e+00  
 -6.475031e-04 -1.411174e-03 0.000000e+00  
 -6.547080e-04 -1.452498e-03 0.000000e+00  
 -6.616911e-04 -1.494206e-03 0.000000e+00  
 -6.684526e-04 -1.536286e-03 0.000000e+00  
 -6.749924e-04 -1.578724e-03 0.000000e+00  
 -6.813105e-04 -1.621511e-03 0.000000e+00  
 -6.874069e-04 -1.664633e-03 0.000000e+00  
 -6.932816e-04 -1.708078e-03 0.000000e+00  
 -6.989347e-04 -1.751835e-03 0.000000e+00  
 -7.043660e-04 -1.795892e-03 0.000000e+00  
 -7.095757e-04 -1.840236e-03 0.000000e+00  
 -7.145637e-04 -1.884856e-03 0.000000e+00  
 -7.193300e-04 -1.929739e-03 0.000000e+00  
 -7.238747e-04 -1.974874e-03 0.000000e+00  
 -7.281976e-04 -2.020249e-03 0.000000e+00  
 -7.322989e-04 -2.065851e-03 0.000000e+00  
 -7.361785e-04 -2.111669e-03 0.000000e+00  
 -7.398364e-04 -2.157691e-03 0.000000e+00  
 -7.432726e-04 -2.203905e-03 0.000000e+00  
 -7.464872e-04 -2.250298e-03 0.000000e+00  
 -7.494800e-04 -2.296859e-03 0.000000e+00  
 -7.522512e-04 -2.343576e-03 0.000000e+00  
 -7.548007e-04 -2.390437e-03 0.000000e+00  
 -7.571284e-04 -2.437430e-03 0.000000e+00  
 -7.592344e-04 -2.484543e-03 0.000000e+00  
 -7.611186e-04 -2.531764e-03 0.000000e+00  
 -7.627811e-04 -2.579081e-03 0.000000e+00  
 -7.642217e-04 -2.626482e-03 0.000000e+00  
 -7.654404e-04 -2.673956e-03 0.000000e+00  
 -7.664373e-04 -2.721491e-03 0.000000e+00  
 -7.672126e-04 -2.769075e-03 0.000000e+00  
 -7.677668e-04 -2.816695e-03 0.000000e+00  
 -7.681005e-04 -2.864339e-03 0.000000e+00  