# vtk DataFile Version 1.0 
PolyMesh 
ASCII 
 
DATASET POLYDATA 
 
POINTS 6002 float 
-0.000000e+00 -2.000000e+00 0.000000e+00  
 -0.000000e+00 -1.881557e+00 0.000000e+00  
 9.889200e-02 -1.888948e+00 0.000000e+00  
 9.120848e-02 -2.000000e+00 0.000000e+00  
 7.564778e-02 -1.765750e+00 0.000000e+00  
 -0.000000e+00 -1.771510e+00 0.000000e+00  
 -0.000000e+00 -1.645268e+00 0.000000e+00  
 1.210541e-01 -1.814749e+00 0.000000e+00  
 1.079131e-01 -1.882345e+00 0.000000e+00  
 1.964238e-01 -1.913305e+00 0.000000e+00  
 1.953188e-01 -2.000000e+00 0.000000e+00  
 -0.000000e+00 -1.523734e+00 0.000000e+00  
 1.915149e-01 -1.789685e+00 0.000000e+00  
 2.001782e-01 -1.730940e+00 0.000000e+00  
 1.571264e-01 -1.689209e+00 0.000000e+00  
 1.103517e-01 -1.691819e+00 0.000000e+00  
 6.937388e-02 -1.644781e+00 0.000000e+00  
 1.073521e-01 -1.572942e+00 0.000000e+00  
 7.729390e-02 -1.526786e+00 0.000000e+00  
 2.394687e-01 -1.831973e+00 0.000000e+00  
 2.370316e-01 -1.883057e+00 0.000000e+00  
 3.056752e-01 -1.921510e+00 0.000000e+00  
 3.042413e-01 -2.000000e+00 0.000000e+00  
 -0.000000e+00 -1.412130e+00 0.000000e+00  
 1.169869e-01 -1.457454e+00 0.000000e+00  
 8.149073e-02 -1.411991e+00 0.000000e+00  
 3.083523e-01 -1.795641e+00 0.000000e+00  
 3.061156e-01 -1.729290e+00 0.000000e+00  
 2.694902e-01 -1.706437e+00 0.000000e+00  
 1.795526e-01 -1.578650e+00 0.000000e+00  
 2.643766e-01 -1.626754e+00 0.000000e+00  
 1.960409e-01 -1.607549e+00 0.000000e+00  
 2.061937e-01 -1.516038e+00 0.000000e+00  
 1.588947e-01 -1.457777e+00 0.000000e+00  
 -0.000000e+00 -1.302678e+00 0.000000e+00  
 -0.000000e+00 -1.209641e+00 0.000000e+00  
 -0.000000e+00 -1.107028e+00 0.000000e+00  
 3.580931e-01 -1.828303e+00 0.000000e+00  
 3.581722e-01 -1.887185e+00 0.000000e+00  
 4.182429e-01 -1.922342e+00 0.000000e+00  
 4.179423e-01 -2.000000e+00 0.000000e+00  
 1.138255e-01 -1.333218e+00 0.000000e+00  
 9.512609e-02 -1.307373e+00 0.000000e+00  
 4.183488e-01 -1.794451e+00 0.000000e+00  
 1.838104e-01 -1.340992e+00 0.000000e+00  
 2.069707e-01 -1.392678e+00 0.000000e+00  
 3.684190e-01 -1.700020e+00 0.000000e+00  
 4.193489e-01 -1.731860e+00 0.000000e+00  
 3.046843e-01 -1.598717e+00 0.000000e+00  
 3.059214e-01 -1.532405e+00 0.000000e+00  
 2.772251e-01 -1.410489e+00 0.000000e+00  
 3.704379e-01 -1.630734e+00 0.000000e+00  
 2.653350e-01 -1.503419e+00 0.000000e+00  
 1.177212e-01 -1.217678e+00 0.000000e+00  
 9.549031e-02 -1.111579e+00 0.000000e+00  
 1.014892e-01 -1.202825e+00 0.000000e+00  
 -0.000000e+00 -1.009078e+00 0.000000e+00  
 1.172695e-01 -1.088775e+00 0.000000e+00  
 9.033091e-02 -1.008260e+00 0.000000e+00  
 5.305146e-01 -1.796408e+00 0.000000e+00  
 4.739960e-01 -1.829604e+00 0.000000e+00  
 4.729926e-01 -1.888063e+00 0.000000e+00  
 5.327945e-01 -1.924390e+00 0.000000e+00  
 5.321554e-01 -2.000000e+00 0.000000e+00  
 2.265832e-01 -1.280204e+00 0.000000e+00  
 1.725703e-01 -1.214432e+00 0.000000e+00  
 4.767869e-01 -1.701169e+00 0.000000e+00  
 5.326578e-01 -1.736458e+00 0.000000e+00  
 2.571249e-01 -1.277647e+00 0.000000e+00  
 3.002998e-01 -1.397605e+00 0.000000e+00  
 3.151752e-01 -1.334710e+00 0.000000e+00  
 4.795802e-01 -1.638089e+00 0.000000e+00  
 3.748725e-01 -1.437350e+00 0.000000e+00  
 4.222372e-01 -1.540155e+00 0.000000e+00  
 4.185432e-01 -1.602044e+00 0.000000e+00  
 3.694003e-01 -1.504000e+00 0.000000e+00  
 2.161702e-01 -1.147050e+00 0.000000e+00  
 1.760511e-01 -1.090326e+00 0.000000e+00  
 -0.000000e+00 -9.033633e-01 0.000000e+00  
 1.176475e-01 -9.698891e-01 0.000000e+00  
 8.857874e-02 -9.027956e-01 0.000000e+00  
 -0.000000e+00 -7.948699e-01 0.000000e+00  
 -0.000000e+00 -6.832609e-01 0.000000e+00  
 -0.000000e+00 -5.697853e-01 0.000000e+00  
 2.166767e-01 -1.025272e+00 0.000000e+00  
 1.864026e-01 -9.706024e-01 0.000000e+00  
 -0.000000e+00 -4.547238e-01 0.000000e+00  
 5.883280e-01 -1.705158e+00 0.000000e+00  
 6.464769e-01 -1.742544e+00 0.000000e+00  
 6.435707e-01 -1.800201e+00 0.000000e+00  
 5.895375e-01 -1.833479e+00 0.000000e+00  
 5.878457e-01 -1.889337e+00 0.000000e+00  
 6.492899e-01 -1.927971e+00 0.000000e+00  
 6.483887e-01 -2.000000e+00 0.000000e+00  
 2.614707e-01 -1.148296e+00 0.000000e+00  
 3.073845e-01 -1.204989e+00 0.000000e+00  
 5.917061e-01 -1.645402e+00 0.000000e+00  
 5.332347e-01 -1.607367e+00 0.000000e+00  
 3.373034e-01 -1.205287e+00 0.000000e+00  
 3.792225e-01 -1.309098e+00 0.000000e+00  
 3.881814e-01 -1.267000e+00 0.000000e+00  
 4.241562e-01 -1.408641e+00 0.000000e+00  
 4.304683e-01 -1.359059e+00 0.000000e+00  
 5.368829e-01 -1.549633e+00 0.000000e+00  
 4.858431e-01 -1.452916e+00 0.000000e+00  
 4.807115e-01 -1.509818e+00 0.000000e+00  
 3.099720e-01 -1.074615e+00 0.000000e+00  
 2.868733e-01 -1.031442e+00 0.000000e+00  
 1.172884e-01 -8.568940e-01 0.000000e+00  
 8.462031e-02 -7.938601e-01 0.000000e+00  
 1.828946e-01 -8.548108e-01 0.000000e+00  
 2.190579e-01 -9.145803e-01 0.000000e+00  
 1.154437e-01 -7.425684e-01 0.000000e+00  
 8.145588e-02 -6.825143e-01 0.000000e+00  
 1.139370e-01 -6.282545e-01 0.000000e+00  
 7.878040e-02 -5.691741e-01 0.000000e+00  
 1.127387e-01 -5.134257e-01 0.000000e+00  
 7.634077e-02 -4.542786e-01 0.000000e+00  
 3.198913e-01 -9.679870e-01 0.000000e+00  
 2.816882e-01 -9.119992e-01 0.000000e+00  
 -0.000000e+00 -3.382521e-01 0.000000e+00  
 1.119805e-01 -3.974660e-01 0.000000e+00  
 7.461495e-02 -3.382021e-01 0.000000e+00  
 -0.000000e+00 -2.213645e-01 0.000000e+00  
 6.475399e-01 -1.614429e+00 0.000000e+00  
 7.045967e-01 -1.652545e+00 0.000000e+00  
 7.010908e-01 -1.711092e+00 0.000000e+00  
 7.598432e-01 -1.748797e+00 0.000000e+00  
 7.564519e-01 -1.806271e+00 0.000000e+00  
 7.063674e-01 -1.839311e+00 0.000000e+00  
 7.040941e-01 -1.891045e+00 0.000000e+00  
 7.689838e-01 -1.933463e+00 0.000000e+00  
 7.680010e-01 -2.000000e+00 0.000000e+00  
 3.727882e-01 -1.090027e+00 0.000000e+00  
 3.872949e-01 -1.147928e+00 0.000000e+00  
 4.135199e-01 -1.052428e+00 0.000000e+00  
 6.513336e-01 -1.555620e+00 0.000000e+00  
 5.962761e-01 -1.517371e+00 0.000000e+00  
 4.603658e-01 -1.234283e+00 0.000000e+00  
 4.533894e-01 -1.171303e+00 0.000000e+00  
 4.992349e-01 -1.259767e+00 0.000000e+00  
 4.980887e-01 -1.327214e+00 0.000000e+00  
 5.469543e-01 -1.362031e+00 0.000000e+00  
 5.434040e-01 -1.421501e+00 0.000000e+00  
 5.992606e-01 -1.460127e+00 0.000000e+00  
 7.094409e-01 -1.525057e+00 0.000000e+00  
 3.866412e-01 -9.634251e-01 0.000000e+00  
 4.159750e-01 -9.947689e-01 0.000000e+00  
 1.790627e-01 -7.408487e-01 0.000000e+00  
 2.147649e-01 -7.988755e-01 0.000000e+00  
 3.137901e-01 -8.506849e-01 0.000000e+00  
 2.775627e-01 -7.965989e-01 0.000000e+00  
 1.753726e-01 -6.267801e-01 0.000000e+00  
 2.111700e-01 -6.842581e-01 0.000000e+00  
 2.080367e-01 -5.700372e-01 0.000000e+00  
 1.715842e-01 -5.121265e-01 0.000000e+00  
 2.052342e-01 -4.554817e-01 0.000000e+00  
 1.678303e-01 -3.965883e-01 0.000000e+00  
 3.790495e-01 -8.481106e-01 0.000000e+00  
 4.087915e-01 -8.860188e-01 0.000000e+00  
 1.121673e-01 -2.798480e-01 0.000000e+00  
 7.510695e-02 -2.217248e-01 0.000000e+00  
 1.652864e-01 -2.800659e-01 0.000000e+00  
 2.033672e-01 -3.396543e-01 0.000000e+00  
 -0.000000e+00 -1.054779e-01 0.000000e+00  
 -0.000000e+00 6.496220e-03 0.000000e+00  
 1.129218e-01 -1.617221e-01 0.000000e+00  
 7.802640e-02 -1.063531e-01 0.000000e+00  
 7.656237e-01 -1.564994e+00 0.000000e+00  
 7.611817e-01 -1.621419e+00 0.000000e+00  
 8.179369e-01 -1.661166e+00 0.000000e+00  
 8.135681e-01 -1.718024e+00 0.000000e+00  
 8.710535e-01 -1.756009e+00 0.000000e+00  
 8.250370e-01 -1.845859e+00 0.000000e+00  
 8.672282e-01 -1.813817e+00 0.000000e+00  
 8.232641e-01 -1.892831e+00 0.000000e+00  
 8.915325e-01 -1.937779e+00 0.000000e+00  
 8.945025e-01 -2.000000e+00 0.000000e+00  
 5.038388e-01 -1.126283e+00 0.000000e+00  
 4.992585e-01 -1.090864e+00 0.000000e+00  
 5.376740e-01 -1.037730e+00 0.000000e+00  
 5.008495e-01 -9.729506e-01 0.000000e+00  
 7.143865e-01 -1.466356e+00 0.000000e+00  
 6.591414e-01 -1.426989e+00 0.000000e+00  
 5.667255e-01 -1.161632e+00 0.000000e+00  
 5.591748e-01 -1.234314e+00 0.000000e+00  
 6.124813e-01 -1.270416e+00 0.000000e+00  
 6.062719e-01 -1.332716e+00 0.000000e+00  
 6.619203e-01 -1.372517e+00 0.000000e+00  
 7.718760e-01 -1.437435e+00 0.000000e+00  
 8.233062e-01 -1.534056e+00 0.000000e+00  
 8.292236e-01 -1.479523e+00 0.000000e+00  
 6.141678e-01 -1.139922e+00 0.000000e+00  
 5.163407e-01 -9.313670e-01 0.000000e+00  
 4.844241e-01 -8.817325e-01 0.000000e+00  
 3.090795e-01 -7.362662e-01 0.000000e+00  
 2.734161e-01 -6.821184e-01 0.000000e+00  
 4.061331e-01 -7.789512e-01 0.000000e+00  
 3.736369e-01 -7.337461e-01 0.000000e+00  
 2.689041e-01 -5.679214e-01 0.000000e+00  
 3.047786e-01 -6.230464e-01 0.000000e+00  
 2.639387e-01 -4.534843e-01 0.000000e+00  
 3.005076e-01 -5.102308e-01 0.000000e+00  
 2.589082e-01 -3.383621e-01 0.000000e+00  
 2.963259e-01 -3.971582e-01 0.000000e+00  
 5.082432e-01 -8.216092e-01 0.000000e+00  
 4.770379e-01 -7.754832e-01 0.000000e+00  
 1.673045e-01 -1.630777e-01 0.000000e+00  
 2.044148e-01 -2.211311e-01 0.000000e+00  
 2.554366e-01 -2.219719e-01 0.000000e+00  
 2.934221e-01 -2.828496e-01 0.000000e+00  
 -0.000000e+00 1.217188e-01 0.000000e+00  
 1.141489e-01 -4.518472e-02 0.000000e+00  
 8.179209e-02 8.023270e-03 0.000000e+00  
 1.097288e-01 6.114873e-02 0.000000e+00  
 7.274479e-02 1.220263e-01 0.000000e+00  
 1.738492e-01 -4.764291e-02 0.000000e+00  
 2.078710e-01 -1.011691e-01 0.000000e+00  
 -0.000000e+00 2.399399e-01 0.000000e+00  
 -0.000000e+00 3.556137e-01 0.000000e+00  
 -0.000000e+00 4.702613e-01 0.000000e+00  
 8.746938e-01 -1.630634e+00 0.000000e+00  
 8.819951e-01 -1.578127e+00 0.000000e+00  
 9.352814e-01 -1.678732e+00 0.000000e+00  
 9.250798e-01 -1.726546e+00 0.000000e+00  
 9.900946e-01 -1.784594e+00 0.000000e+00  
 9.472628e-01 -1.851234e+00 0.000000e+00  
 9.534312e-01 -1.880971e+00 0.000000e+00  
 1.011798e+00 -1.913995e+00 0.000000e+00  
 1.013058e+00 -2.000000e+00 0.000000e+00  
[...]
 POINT_DATA 6002 
 VECTORS Displacement float 
 1.397500e-04 -1.170000e-04 0.000000e+00  
 1.374479e-04 -1.035525e-04 0.000000e+00  
 1.123033e-04 -1.037479e-04 0.000000e+00  
 1.150760e-04 -1.162150e-04 0.000000e+00  
 1.159446e-04 -9.077981e-05 0.000000e+00  
 1.343274e-04 -9.179371e-05 0.000000e+00  
 1.296561e-04 -7.917705e-05 0.000000e+00  
 1.058558e-04 -9.588684e-05 0.000000e+00  
 1.099883e-04 -1.030216e-04 0.000000e+00  
 8.753975e-05 -1.070803e-04 0.000000e+00  
 8.719921e-05 -1.166709e-04 0.000000e+00  
 1.241315e-04 -6.791168e-05 0.000000e+00  
 8.866357e-05 -9.394481e-05 0.000000e+00  
 8.622270e-05 -8.818878e-05 0.000000e+00  
 9.548413e-05 -8.355356e-05 0.000000e+00  
 1.061398e-04 -8.343135e-05 0.000000e+00  
 1.140554e-04 -7.883081e-05 0.000000e+00  
 1.035611e-04 -7.225913e-05 0.000000e+00  
 1.082131e-04 -6.799323e-05 0.000000e+00  
 7.715709e-05 -9.907467e-05 0.000000e+00  
 7.750051e-05 -1.044119e-04 0.000000e+00  
 5.976919e-05 -1.101364e-04 0.000000e+00  
 5.838022e-05 -1.186735e-04 0.000000e+00  
 1.182351e-04 -5.832777e-05 0.000000e+00  
 9.759716e-05 -6.218122e-05 0.000000e+00  
 1.025737e-04 -5.823752e-05 0.000000e+00  
 6.100031e-05 -9.707600e-05 0.000000e+00  
 6.204935e-05 -9.042976e-05 0.000000e+00  
 7.036304e-05 -8.723933e-05 0.000000e+00  
 8.847375e-05 -7.346276e-05 0.000000e+00  
 7.114574e-05 -7.960300e-05 0.000000e+00  
 8.552807e-05 -7.637056e-05 0.000000e+00  
 8.161849e-05 -6.841147e-05 0.000000e+00  
 8.941913e-05 -6.268075e-05 0.000000e+00  
 1.117441e-04 -4.963635e-05 0.000000e+00  
 1.057160e-04 -4.279952e-05 0.000000e+00  
 9.856568e-05 -3.584619e-05 0.000000e+00  
 4.873954e-05 -1.019805e-04 0.000000e+00  
 4.744547e-05 -1.080906e-04 0.000000e+00  
 3.158884e-05 -1.141140e-04 0.000000e+00  
 2.874815e-05 -1.224652e-04 0.000000e+00  
 9.303121e-05 -5.217006e-05 0.000000e+00  
 9.513990e-05 -5.006257e-05 0.000000e+00  
 3.533842e-05 -1.009692e-04 0.000000e+00  
 8.084878e-05 -5.371172e-05 0.000000e+00  
 7.831119e-05 -5.821474e-05 0.000000e+00  
 4.834736e-05 -8.976674e-05 0.000000e+00  
 3.652083e-05 -9.490257e-05 0.000000e+00  
 6.244032e-05 -7.817865e-05 0.000000e+00  
 6.181892e-05 -7.237426e-05 0.000000e+00  
 6.571793e-05 -6.138487e-05 0.000000e+00  
 4.853086e-05 -8.341970e-05 0.000000e+00  
 6.957593e-05 -6.871976e-05 0.000000e+00  
 8.680635e-05 -4.367404e-05 0.000000e+00  
 8.447017e-05 -3.636533e-05 0.000000e+00  
 8.871282e-05 -4.250374e-05 0.000000e+00  
 9.128908e-05 -2.978349e-05 0.000000e+00  
 7.994965e-05 -3.511386e-05 0.000000e+00  
 7.885427e-05 -3.000006e-05 0.000000e+00  
 9.449069e-06 -1.068686e-04 0.000000e+00  
 2.131482e-05 -1.070941e-04 0.000000e+00  
 1.940998e-05 -1.130181e-04 0.000000e+00  
 3.252455e-06 -1.199815e-04 0.000000e+00  
 -5.503797e-07 -1.279670e-04 0.000000e+00  
 7.131638e-05 -5.004347e-05 0.000000e+00  
 7.773256e-05 -4.424769e-05 0.000000e+00  
 2.453349e-05 -9.478738e-05 0.000000e+00  
 1.119724e-05 -1.012161e-04 0.000000e+00  
 6.605342e-05 -5.067624e-05 0.000000e+00  
 6.123585e-05 -6.106159e-05 0.000000e+00  
 5.744790e-05 -5.676178e-05 0.000000e+00  
 2.540683e-05 -8.915162e-05 0.000000e+00  
 4.782436e-05 -6.706995e-05 0.000000e+00  
 3.856069e-05 -7.767876e-05 0.000000e+00  
 3.872267e-05 -8.288891e-05 0.000000e+00  
 4.910536e-05 -7.231005e-05 0.000000e+00  
 6.802207e-05 -4.062603e-05 0.000000e+00  
 7.140243e-05 -3.613621e-05 0.000000e+00  
 8.298661e-05 -2.386991e-05 0.000000e+00  
 7.280210e-05 -2.808932e-05 0.000000e+00  
 7.207094e-05 -2.416111e-05 0.000000e+00  
 7.403141e-05 -1.848068e-05 0.000000e+00  
 6.441500e-05 -1.365523e-05 0.000000e+00  
 5.427653e-05 -9.496169e-06 0.000000e+00  
 6.259823e-05 -3.314397e-05 0.000000e+00  
 6.389993e-05 -2.930956e-05 0.000000e+00  
 4.368622e-05 -6.048133e-06 0.000000e+00  
 2.273911e-07 -1.017882e-04 0.000000e+00  
 -1.406693e-05 -1.093296e-04 0.000000e+00  
 -1.641510e-05 -1.146065e-04 0.000000e+00  
 -5.783255e-06 -1.141521e-04 0.000000e+00  
 -8.264583e-06 -1.196739e-04 0.000000e+00  
 -2.528524e-05 -1.278034e-04 0.000000e+00  
 -2.990271e-05 -1.352653e-04 0.000000e+00  
 6.118942e-05 -4.195276e-05 0.000000e+00  
 5.581260e-05 -4.720061e-05 0.000000e+00  
 1.781049e-06 -9.659716e-05 0.000000e+00  
 1.502477e-05 -8.947847e-05 0.000000e+00  
 5.112063e-05 -4.837224e-05 0.000000e+00  
 4.600956e-05 -5.741498e-05 0.000000e+00  
 4.400530e-05 -5.480638e-05 0.000000e+00  
 3.867713e-05 -6.701796e-05 0.000000e+00  
 3.747614e-05 -6.353412e-05 0.000000e+00  
 1.570764e-05 -8.473325e-05 0.000000e+00  
 2.708951e-05 -7.377225e-05 0.000000e+00  
 2.740567e-05 -7.811501e-05 0.000000e+00  
 5.159551e-05 -3.895782e-05 0.000000e+00  
 5.332469e-05 -3.556892e-05 0.000000e+00  
 6.557820e-05 -2.214335e-05 0.000000e+00  
 6.480780e-05 -1.878620e-05 0.000000e+00  
 5.792578e-05 -2.320393e-05 0.000000e+00  
 5.692194e-05 -2.708634e-05 0.000000e+00  
 5.794414e-05 -1.685709e-05 0.000000e+00  
 5.678137e-05 -1.400248e-05 0.000000e+00  
 4.982947e-05 -1.232420e-05 0.000000e+00  
 4.811477e-05 -9.871396e-06 0.000000e+00  
 4.126988e-05 -8.530049e-06 0.000000e+00  
 3.892139e-05 -6.443007e-06 0.000000e+00  
 4.670001e-05 -3.322820e-05 0.000000e+00  
 4.923577e-05 -2.886677e-05 0.000000e+00  
 3.271230e-05 -3.346624e-06 0.000000e+00  
 3.228138e-05 -5.473744e-06 0.000000e+00  
 2.927154e-05 -3.762057e-06 0.000000e+00  
 2.150812e-05 -1.433316e-06 0.000000e+00  
 -8.464007e-06 -9.786106e-05 0.000000e+00  
 -2.185066e-05 -1.056691e-04 0.000000e+00  
 -2.419498e-05 -1.106325e-04 0.000000e+00  
 -3.903209e-05 -1.190332e-04 0.000000e+00  
 -4.211071e-05 -1.241436e-04 0.000000e+00  
 -3.300021e-05 -1.231751e-04 0.000000e+00  
 -3.591324e-05 -1.281390e-04 0.000000e+00  
 -5.439385e-05 -1.377743e-04 0.000000e+00  
 -5.963334e-05 -1.445308e-04 0.000000e+00  
 4.317193e-05 -4.248735e-05 0.000000e+00  
 4.227239e-05 -4.678549e-05 0.000000e+00  
 3.671586e-05 -4.221193e-05 0.000000e+00  
 -6.901190e-06 -9.314308e-05 0.000000e+00  
 4.998556e-06 -8.595424e-05 0.000000e+00  
 3.205211e-05 -5.620410e-05 0.000000e+00  
 3.269495e-05 -5.165118e-05 0.000000e+00  
 2.590104e-05 -6.018379e-05 0.000000e+00  
 2.586646e-05 -6.490733e-05 0.000000e+00  
 1.719335e-05 -7.048928e-05 0.000000e+00  
 1.695614e-05 -7.476961e-05 0.000000e+00  
 5.974152e-06 -8.155639e-05 0.000000e+00  
 -1.682600e-05 -9.528141e-05 0.000000e+00  
 3.816824e-05 -3.589470e-05 0.000000e+00  
 3.520112e-05 -3.905112e-05 0.000000e+00  
 5.150867e-05 -1.792623e-05 0.000000e+00  
 5.126298e-05 -2.133909e-05 0.000000e+00  
 4.297993e-05 -2.701348e-05 0.000000e+00  
 4.451944e-05 -2.316587e-05 0.000000e+00  
 4.456057e-05 -1.338612e-05 0.000000e+00  
 4.503508e-05 -1.640949e-05 0.000000e+00  
 3.831816e-05 -1.224876e-05 0.000000e+00  
 3.713053e-05 -9.567555e-06 0.000000e+00  
 3.115846e-05 -8.828109e-06 0.000000e+00  
 2.924243e-05 -6.479740e-06 0.000000e+00  
 3.564155e-05 -2.972576e-05 0.000000e+00  
 3.341050e-05 -3.303498e-05 0.000000e+00  
 2.287725e-05 -3.177533e-06 0.000000e+00  
 1.927625e-05 -1.878568e-06 0.000000e+00  
 2.090168e-05 -4.166091e-06 0.000000e+00  
 2.353913e-05 -6.152592e-06 0.000000e+00  
 1.027599e-05 -3.254236e-07 0.000000e+00  
 -6.333796e-07 -1.234376e-09 0.000000e+00  
 1.325894e-05 -1.684451e-06 0.000000e+00  
 9.226105e-06 -8.132982e-07 0.000000e+00  
 -2.948032e-05 -1.034468e-04 0.000000e+00  
 -3.165978e-05 -1.077996e-04 0.000000e+00  
 -4.551905e-05 -1.164838e-04 0.000000e+00  
 -4.842069e-05 -1.211098e-04 0.000000e+00  
 -6.340992e-05 -1.301866e-04 0.000000e+00  
 -6.042796e-05 -1.341239e-04 0.000000e+00  
 -6.724441e-05 -1.351779e-04 0.000000e+00  
 -6.385373e-05 -1.385550e-04 0.000000e+00  
 -8.375226e-05 -1.496625e-04 0.000000e+00  
 -9.057614e-05 -1.562431e-04 0.000000e+00  
 2.495025e-05 -5.171181e-05 0.000000e+00  
 2.541011e-05 -4.928657e-05 0.000000e+00  
 1.990846e-05 -4.868878e-05 0.000000e+00  
 2.412558e-05 -4.274545e-05 0.000000e+00  
 -1.530513e-05 -9.102547e-05 0.000000e+00  
 -3.948543e-06 -8.345495e-05 0.000000e+00  
 1.580122e-05 -5.808104e-05 0.000000e+00  
 1.649332e-05 -6.230537e-05 0.000000e+00  
 7.634588e-06 -6.853341e-05 0.000000e+00  
 7.562527e-06 -7.245767e-05 0.000000e+00  
 -2.824126e-06 -7.959029e-05 0.000000e+00  
 -2.438530e-05 -9.391148e-05 0.000000e+00  
 -3.874433e-05 -1.063531e-04 0.000000e+00  
 -3.675893e-05 -1.026297e-04 0.000000e+00  
 9.061319e-06 -6.016288e-05 0.000000e+00  
 2.174859e-05 -4.154937e-05 0.000000e+00  
 2.471686e-05 -3.708570e-05 0.000000e+00  
 3.857244e-05 -2.173064e-05 0.000000e+00  
 3.928935e-05 -1.824494e-05 0.000000e+00  
 3.060469e-05 -2.795333e-05 0.000000e+00  
 3.226835e-05 -2.443291e-05 0.000000e+00  
 3.360864e-05 -1.405672e-05 0.000000e+00  
 3.365240e-05 -1.723726e-05 0.000000e+00  
 2.750074e-05 -1.058116e-05 0.000000e+00  
 2.829544e-05 -1.347451e-05 0.000000e+00  
 2.096061e-05 -7.829206e-06 0.000000e+00  
 2.252680e-05 -1.042351e-05 0.000000e+00  
 2.110584e-05 -3.577444e-05 0.000000e+00  
 2.341184e-05 -3.179468e-05 0.000000e+00  
 1.218367e-05 -2.726896e-06 0.000000e+00  
 1.539600e-05 -4.281789e-06 0.000000e+00  
 1.395620e-05 -5.863185e-06 0.000000e+00  
 1.630815e-05 -8.119629e-06 0.000000e+00  
 -1.185513e-05 -4.333526e-07 0.000000e+00  
 3.689133e-06 -1.007398e-06 0.000000e+00  
 -7.017058e-07 -5.203781e-07 0.000000e+00  
 -5.046595e-06 -1.007936e-06 0.000000e+00  
 -1.067192e-05 -8.619756e-07 0.000000e+00  
 3.509941e-06 -2.180620e-06 0.000000e+00  
 7.010126e-06 -3.272806e-06 0.000000e+00  
 -2.329874e-05 -1.683956e-06 0.000000e+00  
 -3.436176e-05 -3.698988e-06 0.000000e+00  
 -4.513225e-05 -6.468511e-06 0.000000e+00  
 -5.483038e-05 -1.194930e-04 0.000000e+00  
 -5.262577e-05 -1.158664e-04 0.000000e+00  
 -7.057562e-05 -1.300527e-04 0.000000e+00  
 -7.240984e-05 -1.331561e-04 0.000000e+00  
 -9.128577e-05 -1.456225e-04 0.000000e+00  
 -8.827839e-05 -1.470401e-04 0.000000e+00  
 -9.253933e-05 -1.505594e-04 0.000000e+00  
 -1.091419e-04 -1.603693e-04 0.000000e+00  
 -1.190347e-04 -1.690486e-04 0.000000e+00  
 1.209509e-05 -5.281815e-05 0.000000e+00  
 7.638983e-06 -5.749989e-05 0.000000e+00  
 1.281995e-05 -4.628741e-05 0.000000e+00  
 8.726026e-06 -5.126300e-05 0.000000e+00  
 -1.221035e-05 -8.219720e-05 0.000000e+00  
 -2.294565e-05 -9.009956e-05 0.000000e+00  
 -7.629911e-07 -6.802088e-05 0.000000e+00  
 -3.050790e-07 -7.095796e-05 0.000000e+00  
 -1.094360e-05 -7.906556e-05 0.000000e+00  
 -6.969477e-06 -7.063067e-05 0.000000e+00  
 -3.110834e-05 -9.372629e-05 0.000000e+00  
 -4.287732e-05 -1.026772e-04 0.000000e+00  
 -4.515326e-05 -1.061705e-04 0.000000e+00  
 -6.091345e-05 -1.194510e-04 0.000000e+00  
 -5.818361e-05 -1.157371e-04 0.000000e+00  
 -2.639980e-06 -6.334107e-05 0.000000e+00  
 -7.688238e-06 -6.847131e-05 0.000000e+00  
 1.032978e-05 -4.503115e-05 0.000000e+00  
 1.343316e-05 -4.062625e-05 0.000000e+00  
 2.836304e-05 -1.990685e-05 0.000000e+00  
 2.738427e-05 -2.336768e-05 0.000000e+00  
 2.141007e-05 -2.707146e-05 0.000000e+00  
 1.966597e-05 -3.086585e-05 0.000000e+00  
 2.374810e-05 -1.937348e-05 0.000000e+00  
 2.401876e-05 -1.608423e-05 0.000000e+00  
 1.972349e-05 -1.600704e-05 0.000000e+00  
 1.926373e-05 -1.295047e-05 0.000000e+00  
 1.410371e-05 -1.052436e-05 0.000000e+00  
 1.532708e-05 -1.330050e-05 0.000000e+00  
 1.065275e-05 -3.977639e-05 0.000000e+00  
 1.314742e-05 -3.561769e-05 0.000000e+00  
 9.508803e-06 -6.722525e-06 0.000000e+00  
 6.497238e-06 -4.927577e-06 0.000000e+00  
 1.053123e-05 -1.133127e-05 0.000000e+00  
 8.527441e-06 -8.908910e-06 0.000000e+00  
 -1.467448e-05 -1.830922e-06 0.000000e+00  
 -2.098555e-05 -2.068044e-06 0.000000e+00  
 -1.386728e-05 -2.503170e-06 0.000000e+00  
 -1.319550e-06 -3.136721e-06 0.000000e+00  
 -4.989310e-06 -2.417933e-06 0.000000e+00  
 -8.150617e-06 -3.145519e-06 0.000000e+00  
 -8.633665e-07 -5.029283e-06 0.000000e+00  
 2.670386e-06 -6.260287e-06 0.000000e+00  
 -2.469300e-05 -3.543847e-06 0.000000e+00  
 -3.043897e-05 -4.166443e-06 0.000000e+00  
 -3.318165e-05 -5.709462e-06 0.000000e+00  
 -4.023090e-05 -6.856576e-06 0.000000e+00  
 -4.200761e-05 -8.875850e-06 0.000000e+00  
 -4.939260e-05 -1.038541e-05 0.000000e+00  
 -5.587061e-05 -1.009194e-05 0.000000e+00  
 -6.556996e-05 -1.418706e-05 0.000000e+00  
 -7.479875e-05 -1.890658e-05 0.000000e+00  
 -7.562372e-05 -1.298558e-04 0.000000e+00  
 -7.850334e-05 -1.335965e-04 0.000000e+00  
 -9.746125e-05 -1.487565e-04 0.000000e+00  
 -9.499656e-05 -1.448531e-04 0.000000e+00  
 -1.123412e-04 -1.585124e-04 0.000000e+00  
 -1.188743e-04 -1.642894e-04 0.000000e+00  
 -1.360209e-04 -1.750695e-04 0.000000e+00  
 -1.459104e-04 -1.828551e-04 0.000000e+00  
 -3.869449e-06 -6.158707e-05 0.000000e+00  
 3.746050e-07 -5.678695e-05 0.000000e+00  
 2.322789e-06 -5.085407e-05 0.000000e+00  
 -1.545558e-06 -5.573997e-05 0.000000e+00  
 -1.988286e-05 -8.222479e-05 0.000000e+00  
 -2.966127e-05 -9.021761e-05 0.000000e+00  
 -1.861067e-05 -8.017798e-05 0.000000e+00  
 -2.427180e-05 -8.218560e-05 0.000000e+00  
 -1.762936e-05 -7.513956e-05 0.000000e+00  
 -5.052015e-05 -1.068315e-04 0.000000e+00  
 -3.742981e-05 -9.492756e-05 0.000000e+00  
 -4.805679e-05 -1.038213e-04 0.000000e+00  
 -6.589673e-05 -1.200327e-04 0.000000e+00  
 -6.268327e-05 -1.164344e-04 0.000000e+00  
 -8.284023e-05 -1.339126e-04 0.000000e+00  
 -7.927697e-05 -1.301884e-04 0.000000e+00  
 -1.906152e-05 -7.500396e-05 0.000000e+00  
 -1.321184e-05 -6.854849e-05 0.000000e+00  
 5.067180e-07 -5.017717e-05 0.000000e+00  
 3.756177e-06 -4.554399e-05 0.000000e+00  
 1.770385e-05 -2.659290e-05 0.000000e+00  
 1.886100e-05 -2.296600e-05 0.000000e+00  
 1.035049e-05 -3.519965e-05 0.000000e+00  
 1.230148e-05 -3.121056e-05 0.000000e+00  
 1.531454e-05 -2.292410e-05 0.000000e+00  
 1.584952e-05 -1.950276e-05 0.000000e+00  
 1.243044e-05 -1.670196e-05 0.000000e+00  
 1.254628e-05 -1.986684e-05 0.000000e+00  
 8.651089e-06 -1.459342e-05 0.000000e+00  
 9.440817e-06 -1.744820e-05 0.000000e+00  
 4.570453e-06 -4.081093e-05 0.000000e+00  
 1.847548e-06 -4.527572e-05 0.000000e+00  
 5.083257e-06 -1.050855e-05 0.000000e+00  
 2.628850e-06 -8.820835e-06 0.000000e+00  
 4.582056e-06 -1.333271e-05 0.000000e+00  
 6.014398e-06 -1.575890e-05 0.000000e+00  
 -2.197108e-05 -4.461752e-06 0.000000e+00  
 -1.683339e-05 -4.285326e-06 0.000000e+00  
 -8.563281e-06 -5.463870e-06 0.000000e+00  
 -1.470356e-05 -5.680535e-06 0.000000e+00  
 -7.559812e-06 -6.258789e-06 0.000000e+00  
 -3.695167e-06 -6.760226e-06 0.000000e+00  
 -6.136609e-08 -1.080829e-05 0.000000e+00  
 -2.319427e-06 -1.015999e-05 0.000000e+00  
 -3.865319e-05 -9.688498e-06 0.000000e+00  
 -2.405950e-05 -6.642111e-06 0.000000e+00  
 -2.942691e-05 -7.214823e-06 0.000000e+00  
 -3.077570e-05 -8.576881e-06 0.000000e+00  
 -3.867032e-05 -1.209194e-05 0.000000e+00  
 -8.552133e-05 -2.557384e-05 0.000000e+00  
 -4.421731e-05 -1.390380e-05 0.000000e+00  
 -5.081829e-05 -1.314175e-05 0.000000e+00  
 -5.644497e-05 -1.470282e-05 0.000000e+00  
 -5.780970e-05 -1.701161e-05 0.000000e+00  
 -6.708262e-05 -1.951275e-05 0.000000e+00  
 -6.730312e-05 -2.204537e-05 0.000000e+00  
 -7.903640e-05 -2.555472e-05 0.000000e+00  
 -9.557058e-05 -3.323968e-05 0.000000e+00  
 -1.732022e-04 -1.987088e-04 0.000000e+00  
 -9.758922e-05 -1.446503e-04 0.000000e+00  
 -1.023345e-04 -1.490776e-04 0.000000e+00  
 -1.377247e-04 -1.742896e-04 0.000000e+00  
 -1.230509e-04 -1.643506e-04 0.000000e+00  
 -1.162385e-04 -1.588065e-04 0.000000e+00  
 -1.450130e-04 -1.797746e-04 0.000000e+00  
 -1.623557e-04 -1.912096e-04 0.000000e+00  
 -9.587380e-06 -6.246496e-05 0.000000e+00  
 -1.450549e-05 -6.824466e-05 0.000000e+00  
 -1.087380e-05 -6.232390e-05 0.000000e+00  
 -6.644085e-06 -5.691053e-05 0.000000e+00  
 -3.264052e-05 -8.875496e-05 0.000000e+00  
 -3.676637e-05 -9.272559e-05 0.000000e+00  
 -3.443399e-05 -8.895076e-05 0.000000e+00  
 -2.759140e-05 -8.206976e-05 0.000000e+00  
 -6.924299e-05 -1.210334e-04 0.000000e+00  
 -6.382344e-05 -1.160203e-04 0.000000e+00  
 -5.001732e-05 -1.036832e-04 0.000000e+00  
 -5.637172e-05 -1.096699e-04 0.000000e+00  
 -1.051997e-04 -1.498559e-04 0.000000e+00  
 -8.187709e-05 -1.312782e-04 0.000000e+00  
 -8.616861e-05 -1.349820e-04 0.000000e+00  
 -9.937820e-05 -1.453058e-04 0.000000e+00  
 -2.250755e-05 -7.563746e-05 0.000000e+00  
 -2.861311e-05 -8.222213e-05 0.000000e+00  
 -4.207635e-06 -5.184040e-05 0.000000e+00  
 -7.812357e-06 -5.696032e-05 0.000000e+00  
 1.096049e-05 -2.741294e-05 0.000000e+00  
 9.561840e-06 -3.120852e-05 0.000000e+00  
 2.669764e-06 -4.093928e-05 0.000000e+00  
 4.872969e-06 -3.662957e-05 0.000000e+00  
 8.337909e-06 -2.779724e-05 0.000000e+00  
 9.174157e-06 -2.424841e-05 0.000000e+00  
 6.708124e-06 -2.498176e-05 0.000000e+00  
 7.003250e-06 -2.173614e-05 0.000000e+00  
 4.694629e-06 -2.277519e-05 0.000000e+00  
 4.541544e-06 -1.985163e-05 0.000000e+00  
 -2.280997e-06 -4.725859e-05 0.000000e+00  
 -5.341777e-06 -5.219812e-05 0.000000e+00  
 7.917087e-07 -1.563256e-05 0.000000e+00  
 1.710299e-06 -1.610449e-05 0.000000e+00  
 2.226168e-06 -2.117542e-05 0.000000e+00  
 -2.068653e-05 -8.278192e-06 0.000000e+00  
 -1.532873e-05 -7.706155e-06 0.000000e+00  
 -8.595066e-06 -9.538412e-06 0.000000e+00  
 -1.318540e-05 -9.436058e-06 0.000000e+00  
 -7.045789e-06 -1.162551e-05 0.000000e+00  
 -3.924812e-06 -1.227443e-05 0.000000e+00  
 -7.559300e-07 -1.789912e-05 0.000000e+00  
 -2.808324e-06 -1.638524e-05 0.000000e+00  
 -2.779836e-05 -1.121975e-05 0.000000e+00  
 -3.247332e-05 -1.371162e-05 0.000000e+00  
 -2.071993e-05 -1.078550e-05 0.000000e+00  
 -2.435800e-05 -1.195147e-05 0.000000e+00  
 -3.139822e-05 -1.545642e-05 0.000000e+00  
 -8.796804e-05 -3.333526e-05 0.000000e+00  
 -4.284551e-05 -1.668427e-05 0.000000e+00  
 -3.443464e-05 -1.784488e-05 0.000000e+00  
 -7.489501e-05 -2.868217e-05 0.000000e+00  
 -7.698508e-05 -3.071995e-05 0.000000e+00  
 -4.568080e-05 -1.852752e-05 0.000000e+00  
 -5.195444e-05 -1.898633e-05 0.000000e+00  
 -5.498471e-05 -2.258002e-05 0.000000e+00  
 -6.183987e-05 -2.345901e-05 0.000000e+00  
 -6.385010e-05 -2.725040e-05 0.000000e+00  
 -8.481869e-05 -3.850071e-05 0.000000e+00  
 -9.151177e-05 -4.143975e-05 0.000000e+00  
 -1.046425e-04 -4.168281e-05 0.000000e+00  
 -1.120008e-04 -4.995118e-05 0.000000e+00  
 -1.998594e-04 -2.160519e-04 0.000000e+00  
 -1.706903e-04 -1.967743e-04 0.000000e+00  
 -1.879356e-04 -2.086705e-04 0.000000e+00  
 -1.626949e-04 -1.914887e-04 0.000000e+00  
 -1.181197e-04 -1.595860e-04 0.000000e+00  
 -1.393569e-04 -1.750979e-04 0.000000e+00  
 -1.251836e-04 -1.648073e-04 0.000000e+00  
 -1.467920e-04 -1.802864e-04 0.000000e+00  
 -1.255107e-04 -1.656062e-04 0.000000e+00  
 -2.323854e-05 -7.585069e-05 0.000000e+00  
 -1.800154e-05 -6.975390e-05 0.000000e+00  
 -1.401707e-05 -6.435760e-05 0.000000e+00  
 -1.857662e-05 -7.015191e-05 0.000000e+00  
 -5.147716e-05 -1.047608e-04 0.000000e+00  
 -4.268106e-05 -9.640207e-05 0.000000e+00  
 -4.404443e-05 -9.775747e-05 0.000000e+00  
 -3.609983e-05 -8.974745e-05 0.000000e+00  
 -8.558331e-05 -1.343874e-04 0.000000e+00  
 -7.050361e-05 -1.218459e-04 0.000000e+00  
 -8.258950e-05 -1.323711e-04 0.000000e+00  
 -6.881266e-05 -1.208115e-04 0.000000e+00  
 -5.958658e-05 -1.124164e-04 0.000000e+00  
 -1.178361e-04 -1.605444e-04 0.000000e+00  
 -1.073816e-04 -1.520377e-04 0.000000e+00  
 -1.014459e-04 -1.477118e-04 0.000000e+00  
 -3.683895e-05 -9.091033e-05 0.000000e+00  
 -3.030283e-05 -8.384797e-05 0.000000e+00  
 -1.047406e-05 -5.934606e-05 0.000000e+00  
 -1.446623e-05 -6.497530e-05 0.000000e+00  
 3.028981e-06 -3.714691e-05 0.000000e+00  
 4.693319e-06 -3.301484e-05 0.000000e+00  
 -8.488832e-07 -4.318198e-05 0.000000e+00  
 -3.364223e-06 -4.796118e-05 0.000000e+00  
 2.954446e-06 -3.391400e-05 0.000000e+00  
 4.069372e-06 -2.995542e-05 0.000000e+00  
 2.477307e-06 -3.123915e-05 0.000000e+00  
 3.054906e-06 -2.727209e-05 0.000000e+00  
 1.584275e-06 -2.381305e-05 0.000000e+00  
 1.642758e-06 -2.895266e-05 0.000000e+00  
 -7.407952e-06 -5.474940e-05 0.000000e+00  
 -1.085109e-05 -6.027003e-05 0.000000e+00  