# vtk DataFile Version 1.0 
PolyMesh 
ASCII 
 
DATASET POLYDATA 
 
POINTS 501 float 
0.000000e+00 1.217862e+00 0.000000e+00  
 0.000000e+00 1.593118e+00 0.000000e+00  
 0.000000e+00 2.000000e+00 0.000000e+00  
 2.959410e-01 2.000000e+00 0.000000e+00  
 0.000000e+00 8.116632e-01 0.000000e+00  
 0.000000e+00 4.063766e-01 0.000000e+00  
 2.547363e-01 8.109588e-01 0.000000e+00  
 3.874484e-01 1.011792e+00 0.000000e+00  
 2.953637e-01 1.207318e+00 0.000000e+00  
 3.976301e-01 1.365311e+00 0.000000e+00  
 3.230276e-01 1.608949e+00 0.000000e+00  
 3.504843e-01 1.648304e+00 0.000000e+00  
 6.446270e-01 1.709933e+00 0.000000e+00  
 6.779852e-01 2.000000e+00 0.000000e+00  
 0.000000e+00 -3.072820e-03 0.000000e+00  
 0.000000e+00 -3.780583e-01 0.000000e+00  
 3.925132e-01 5.996538e-01 0.000000e+00  
 2.659143e-01 4.047689e-01 0.000000e+00  
 3.808552e-01 2.072076e-01 0.000000e+00  
 2.726377e-01 9.553790e-03 0.000000e+00  
 0.000000e+00 -2.000000e+00 0.000000e+00  
 2.550670e-01 -2.000000e+00 0.000000e+00  
 5.509597e-01 6.047807e-01 0.000000e+00  
 6.179597e-01 9.826706e-01 0.000000e+00  
 6.996772e-01 8.297221e-01 0.000000e+00  
 7.028625e-01 1.339248e+00 0.000000e+00  
 7.614220e-01 1.231458e+00 0.000000e+00  
 7.782554e-01 1.580156e+00 0.000000e+00  
 9.923415e-01 1.633095e+00 0.000000e+00  
 9.967861e-01 2.000000e+00 0.000000e+00  
 0.000000e+00 -1.559904e+00 0.000000e+00  
 0.000000e+00 -1.172273e+00 0.000000e+00  
 0.000000e+00 -7.816837e-01 0.000000e+00  
 2.485970e-01 -7.779616e-01 0.000000e+00  
 4.175667e-01 -2.008205e-01 0.000000e+00  
 3.138131e-01 -3.890413e-01 0.000000e+00  
 3.919544e-01 -5.571418e-01 0.000000e+00  
 5.924419e-01 -1.785107e-01 0.000000e+00  
 6.436041e-01 2.103548e-01 0.000000e+00  
 7.107510e-01 4.057674e-01 0.000000e+00  
 7.128536e-01 1.003308e-01 0.000000e+00  
 2.672579e-01 -1.576533e+00 0.000000e+00  
 3.317723e-01 -1.656049e+00 0.000000e+00  
 5.921651e-01 -1.687908e+00 0.000000e+00  
 6.239276e-01 -2.000000e+00 0.000000e+00  
 9.595153e-01 4.818401e-01 0.000000e+00  
 9.040131e-01 7.922924e-01 0.000000e+00  
 9.894802e-01 1.180192e+00 0.000000e+00  
 1.042792e+00 8.990369e-01 0.000000e+00  
 1.137534e+00 1.297604e+00 0.000000e+00  
 1.111387e+00 1.564462e+00 0.000000e+00  
 1.336071e+00 1.665808e+00 0.000000e+00  
 1.325973e+00 2.000000e+00 0.000000e+00  
 3.948192e-01 -1.285910e+00 0.000000e+00  
 3.289854e-01 -1.173485e+00 0.000000e+00  
 3.991833e-01 -9.825539e-01 0.000000e+00  
 6.441816e-01 -9.134944e-01 0.000000e+00  
 6.329624e-01 -6.100115e-01 0.000000e+00  
 7.561022e-01 -5.206091e-01 0.000000e+00  
 7.676231e-01 -3.354300e-01 0.000000e+00  
 9.545182e-01 5.342576e-02 0.000000e+00  
 1.003817e+00 -2.052520e-01 0.000000e+00  
 1.044615e+00 4.377594e-01 0.000000e+00  
 1.093210e+00 1.784829e-01 0.000000e+00  
 6.456964e-01 -1.340075e+00 0.000000e+00  
 6.899234e-01 -1.601287e+00 0.000000e+00  
 9.224946e-01 -1.651407e+00 0.000000e+00  
 9.290485e-01 -2.000000e+00 0.000000e+00  
 1.283038e+00 5.585285e-01 0.000000e+00  
 1.242535e+00 8.471826e-01 0.000000e+00  
 1.388492e+00 9.486206e-01 0.000000e+00  
 1.367932e+00 1.218934e+00 0.000000e+00  
 1.519411e+00 1.325190e+00 0.000000e+00  
 1.509264e+00 1.579802e+00 0.000000e+00  
 1.681118e+00 1.678217e+00 0.000000e+00  
 1.678112e+00 2.000000e+00 0.000000e+00  
 7.641105e-01 -9.905674e-01 0.000000e+00  
 7.867911e-01 -1.214320e+00 0.000000e+00  
 1.011246e+00 -8.615827e-01 0.000000e+00  
 1.002521e+00 -6.447158e-01 0.000000e+00  
 1.185623e+00 -5.133521e-01 0.000000e+00  
 1.157505e+00 -2.772851e-01 0.000000e+00  
 1.470310e+00 2.341532e-01 0.000000e+00  
 1.315469e+00 1.142816e-01 0.000000e+00  
 1.355064e+00 -1.505539e-01 0.000000e+00  
 1.436050e+00 4.912547e-01 0.000000e+00  
 1.024254e+00 -1.306332e+00 0.000000e+00  
 1.029521e+00 -1.581666e+00 0.000000e+00  
 1.252890e+00 -1.654784e+00 0.000000e+00  
 1.243781e+00 -2.000000e+00 0.000000e+00  
 1.628678e+00 6.096275e-01 0.000000e+00  
 1.602975e+00 8.758068e-01 0.000000e+00  
 1.758586e+00 9.831935e-01 0.000000e+00  
 1.743032e+00 1.234644e+00 0.000000e+00  
 1.906575e+00 1.347193e+00 0.000000e+00  
 1.899129e+00 1.588611e+00 0.000000e+00  
 2.027308e+00 1.678737e+00 0.000000e+00  
 2.025425e+00 2.000000e+00 0.000000e+00  
 2.354363e+00 2.000000e+00 0.000000e+00  
 1.175871e+00 -9.662395e-01 0.000000e+00  
 1.183312e+00 -1.202962e+00 0.000000e+00  
 1.410765e+00 -8.454288e-01 0.000000e+00  
 1.391952e+00 -6.064377e-01 0.000000e+00  
 1.577791e+00 -4.769093e-01 0.000000e+00  
 1.534580e+00 -2.196139e-01 0.000000e+00  
 1.817727e+00 5.317349e-01 0.000000e+00  
 1.847227e+00 2.867607e-01 0.000000e+00  
 1.720847e+00 -8.822284e-02 0.000000e+00  
 1.684163e+00 1.619550e-01 0.000000e+00  
 1.397372e+00 -1.303990e+00 0.000000e+00  
 1.372173e+00 -1.590738e+00 0.000000e+00  
 1.585783e+00 -1.681737e+00 0.000000e+00  
 1.580540e+00 -2.000000e+00 0.000000e+00  
 1.971343e+00 8.998771e-01 0.000000e+00  
 1.995460e+00 6.539047e-01 0.000000e+00  
 2.140876e+00 1.019629e+00 0.000000e+00  
 2.123778e+00 1.248016e+00 0.000000e+00  
 2.305928e+00 1.377548e+00 0.000000e+00  
 2.294202e+00 1.602042e+00 0.000000e+00  
 2.368389e+00 1.671280e+00 0.000000e+00  
 2.684433e+00 1.650294e+00 0.000000e+00  
 2.688438e+00 2.000000e+00 0.000000e+00  
 1.580890e+00 -9.487172e-01 0.000000e+00  
 1.528435e+00 -1.241416e+00 0.000000e+00  
 1.705214e+00 -9.110386e-01 0.000000e+00  
 1.782055e+00 -5.520358e-01 0.000000e+00  
 1.824141e+00 -6.665331e-01 0.000000e+00  
 1.964107e+00 -3.391641e-01 0.000000e+00  
 1.924090e+00 -1.662756e-01 0.000000e+00  
 2.198762e+00 5.714814e-01 0.000000e+00  
 2.226375e+00 3.418746e-01 0.000000e+00  
 2.066288e+00 2.072882e-01 0.000000e+00  
 2.099641e+00 -4.266900e-03 0.000000e+00  
 1.754792e+00 -1.357335e+00 0.000000e+00  
 1.743816e+00 -1.596388e+00 0.000000e+00  
 1.929515e+00 -1.696185e+00 0.000000e+00  
 1.928815e+00 -2.000000e+00 0.000000e+00  
 3.020263e+00 2.000000e+00 0.000000e+00  
 2.348509e+00 9.289768e-01 0.000000e+00  
 2.370294e+00 6.973815e-01 0.000000e+00  
 2.711016e+00 1.402074e+00 0.000000e+00  
 2.514140e+00 1.268759e+00 0.000000e+00  
 2.527798e+00 1.054400e+00 0.000000e+00  
 2.707373e+00 1.626850e+00 0.000000e+00  
 3.017288e+00 1.691281e+00 0.000000e+00  
 1.922254e+00 -1.255771e+00 0.000000e+00  
 1.938296e+00 -1.085751e+00 0.000000e+00  
 2.580446e+00 6.111461e-01 0.000000e+00  
 2.112581e+00 -7.512765e-01 0.000000e+00  
 2.124392e+00 -9.619010e-01 0.000000e+00  
 2.234177e+00 -6.346905e-01 0.000000e+00  
 2.215431e+00 -4.353351e-01 0.000000e+00  
 2.339093e+00 -9.331393e-02 0.000000e+00  
 2.360060e+00 -3.004202e-01 0.000000e+00  
 2.483097e+00 3.420839e-02 0.000000e+00  
 2.602141e+00 3.762043e-01 0.000000e+00  
 2.461328e+00 2.586007e-01 0.000000e+00  
 2.137715e+00 -1.395135e+00 0.000000e+00  
 2.133958e+00 -1.595887e+00 0.000000e+00  
 2.275420e+00 -1.694191e+00 0.000000e+00  
 2.275034e+00 -2.000000e+00 0.000000e+00  
 3.369066e+00 2.000000e+00 0.000000e+00  
 3.121911e+00 1.603698e+00 0.000000e+00  
 3.371099e+00 1.707572e+00 0.000000e+00  
 2.747954e+00 7.317218e-01 0.000000e+00  
 2.730707e+00 9.557504e-01 0.000000e+00  
 3.121085e+00 1.411937e+00 0.000000e+00  
 2.919571e+00 1.083150e+00 0.000000e+00  
 2.912832e+00 1.277112e+00 0.000000e+00  
 2.951839e+00 6.436934e-01 0.000000e+00  
 2.328940e+00 -1.069881e+00 0.000000e+00  
 2.334774e+00 -1.268362e+00 0.000000e+00  
 2.845736e+00 2.971762e-01 0.000000e+00  
 2.973218e+00 4.063988e-01 0.000000e+00  
 2.507097e+00 -9.445400e-01 0.000000e+00  
 2.493841e+00 -7.271119e-01 0.000000e+00  
 2.618029e+00 -3.948986e-01 0.000000e+00  
 2.632466e+00 -6.075201e-01 0.000000e+00  
 2.735998e+00 -5.212009e-02 0.000000e+00  
 2.753751e+00 -2.736829e-01 0.000000e+00  
 2.867311e+00 6.408925e-02 0.000000e+00  
 2.603127e+00 -2.000000e+00 0.000000e+00  
 2.536279e+00 -1.389391e+00 0.000000e+00  
 2.538285e+00 -1.606165e+00 0.000000e+00  
 2.612079e+00 -1.670262e+00 0.000000e+00  
 3.735761e+00 2.000000e+00 0.000000e+00  
 3.523800e+00 1.604369e+00 0.000000e+00  
 3.734041e+00 1.710931e+00 0.000000e+00  
 3.323077e+00 1.272747e+00 0.000000e+00  
 3.522756e+00 1.395737e+00 0.000000e+00  
 3.115999e+00 9.721316e-01 0.000000e+00  
 3.128361e+00 7.645776e-01 0.000000e+00  
 3.317221e+00 1.102701e+00 0.000000e+00  
 3.312854e+00 6.725795e-01 0.000000e+00  
 3.223191e+00 3.353803e-01 0.000000e+00  
 3.336631e+00 4.470010e-01 0.000000e+00  
 2.732340e+00 -1.261031e+00 0.000000e+00  
 2.718972e+00 -1.046957e+00 0.000000e+00  
 3.119071e+00 -1.324993e-02 0.000000e+00  
 3.255061e+00 1.178420e-01 0.000000e+00  
 2.884960e+00 -7.051968e-01 0.000000e+00  
 2.901380e+00 -9.152585e-01 0.000000e+00  
 3.034121e+00 -5.747186e-01 0.000000e+00  
 3.013983e+00 -3.628835e-01 0.000000e+00  
 3.150681e+00 -2.348461e-01 0.000000e+00  
 4.102340e+00 2.000000e+00 0.000000e+00  
 4.460625e+00 2.000000e+00 0.000000e+00  
 4.815477e+00 2.000000e+00 0.000000e+00  
 5.182154e+00 2.000000e+00 0.000000e+00  
 2.917146e+00 -1.644013e+00 0.000000e+00  
 2.935137e+00 -2.000000e+00 0.000000e+00  
 2.930691e+00 -1.365900e+00 0.000000e+00  
 2.946400e+00 -1.613490e+00 0.000000e+00  
 3.915709e+00 1.601703e+00 0.000000e+00  
 4.098573e+00 1.696630e+00 0.000000e+00  
 3.722767e+00 1.273109e+00 0.000000e+00  
 3.713142e+00 1.060870e+00 0.000000e+00  
 3.904664e+00 1.376953e+00 0.000000e+00  
 3.528078e+00 9.514175e-01 0.000000e+00  
 3.511820e+00 7.972431e-01 0.000000e+00  
 3.717579e+00 6.220282e-01 0.000000e+00  
 3.608650e+00 3.872295e-01 0.000000e+00  
 3.665749e+00 2.606959e-01 0.000000e+00  
 3.497780e+00 4.564607e-02 0.000000e+00  
 3.109201e+00 -1.017761e+00 0.000000e+00  
 3.127052e+00 -1.234306e+00 0.000000e+00  
 3.392569e+00 -3.053659e-01 0.000000e+00  
 3.554561e+00 -1.320052e-01 0.000000e+00  
 3.309687e+00 -8.759755e-01 0.000000e+00  
 3.285808e+00 -6.707123e-01 0.000000e+00  
 3.445262e+00 -5.208550e-01 0.000000e+00  
 4.286522e+00 1.597935e+00 0.000000e+00  
 4.459625e+00 1.683252e+00 0.000000e+00  
[...]
 POINT_DATA 501 
 VECTORS Displacement float 
 -1.062666e-04 -4.338323e-05 0.000000e+00  
 -1.274045e-04 -7.423722e-05 0.000000e+00  
 -1.397500e-04 -1.170000e-04 0.000000e+00  
 -6.166147e-05 -1.178345e-04 0.000000e+00  
 -7.544425e-05 -1.926982e-05 0.000000e+00  
 -3.915825e-05 -4.830403e-06 0.000000e+00  
 -4.755659e-05 -2.376520e-05 0.000000e+00  
 -3.947363e-05 -3.904096e-05 0.000000e+00  
 -5.805932e-05 -4.747452e-05 0.000000e+00  
 -4.379757e-05 -6.281239e-05 0.000000e+00  
 -5.902406e-05 -7.958806e-05 0.000000e+00  
 -5.374114e-05 -8.426828e-05 0.000000e+00  
 1.027853e-05 -1.058529e-04 0.000000e+00  
 3.415200e-05 -1.359893e-04 0.000000e+00  
 2.995997e-07 -2.761850e-10 0.000000e+00  
 3.648751e-05 -4.180647e-06 0.000000e+00  
 -2.559060e-05 -2.070355e-05 0.000000e+00  
 -2.450734e-05 -1.010567e-05 0.000000e+00  
 -9.653178e-06 -1.173466e-05 0.000000e+00  
 -7.203628e-07 -5.802239e-06 0.000000e+00  
 1.397500e-04 -1.170000e-04 0.000000e+00  
 7.136318e-05 -1.169699e-04 0.000000e+00  
 -1.366867e-05 -3.062214e-05 0.000000e+00  
 -1.021896e-05 -5.142209e-05 0.000000e+00  
 -1.863967e-06 -5.070653e-05 0.000000e+00  
 7.519993e-06 -7.968431e-05 0.000000e+00  
 1.314036e-05 -7.747414e-05 0.000000e+00  
 3.078987e-05 -1.048628e-04 0.000000e+00  
 7.526688e-05 -1.308487e-04 0.000000e+00  
 1.110499e-04 -1.645578e-04 0.000000e+00  
 1.258765e-04 -7.117400e-05 0.000000e+00  
 1.031709e-04 -4.019603e-05 0.000000e+00  
 7.291552e-05 -1.787261e-05 0.000000e+00  
 4.657799e-05 -2.217114e-05 0.000000e+00  
 8.360381e-06 -1.299661e-05 0.000000e+00  
 2.118505e-05 -1.139515e-05 0.000000e+00  
 2.434357e-05 -1.952180e-05 0.000000e+00  
 3.393802e-06 -2.461389e-05 0.000000e+00  
 -3.015230e-06 -2.867267e-05 0.000000e+00  
 -1.784589e-06 -3.795164e-05 0.000000e+00  
 -8.452190e-07 -3.389271e-05 0.000000e+00  
 7.031325e-05 -7.548612e-05 0.000000e+00  
 5.745702e-05 -8.482990e-05 0.000000e+00  
 1.739325e-06 -1.005061e-04 0.000000e+00  
 -2.124968e-05 -1.327084e-04 0.000000e+00  
 1.265212e-05 -6.565356e-05 0.000000e+00  
 1.763744e-05 -6.964553e-05 0.000000e+00  
 4.413022e-05 -9.857787e-05 0.000000e+00  
 3.551141e-05 -9.054842e-05 0.000000e+00  
 7.317015e-05 -1.245401e-04 0.000000e+00  
 9.152262e-05 -1.397993e-04 0.000000e+00  
 1.438393e-04 -1.799636e-04 0.000000e+00  
 1.870062e-04 -2.070658e-04 0.000000e+00  
 4.351159e-05 -5.662081e-05 0.000000e+00  
 5.192658e-05 -4.607977e-05 0.000000e+00  
 3.725531e-05 -3.791259e-05 0.000000e+00  
 7.537674e-06 -5.011530e-05 0.000000e+00  
 7.683619e-06 -3.688619e-05 0.000000e+00  
 -1.038138e-06 -4.456503e-05 0.000000e+00  
 -8.308300e-07 -4.171416e-05 0.000000e+00  
 1.074913e-06 -5.942009e-05 0.000000e+00  
 -6.111059e-06 -6.649812e-05 0.000000e+00  
 1.558573e-05 -7.504135e-05 0.000000e+00  
 7.098820e-06 -7.773384e-05 0.000000e+00  
 1.756070e-06 -7.582256e-05 0.000000e+00  
 -1.455965e-05 -9.967945e-05 0.000000e+00  
 -6.313100e-05 -1.252634e-04 0.000000e+00  
 -9.515346e-05 -1.577788e-04 0.000000e+00  
 3.576474e-05 -1.125614e-04 0.000000e+00  
 5.253934e-05 -1.161384e-04 0.000000e+00  
 7.544947e-05 -1.435468e-04 0.000000e+00  
 9.893754e-05 -1.541085e-04 0.000000e+00  
 1.321272e-04 -1.861016e-04 0.000000e+00  
 1.635670e-04 -2.015407e-04 0.000000e+00  
 2.085297e-04 -2.404717e-04 0.000000e+00  
 2.641082e-04 -2.661729e-04 0.000000e+00  
 -7.470163e-06 -6.395677e-05 0.000000e+00  
 -1.657146e-05 -7.914976e-05 0.000000e+00  
 -3.051849e-05 -8.492526e-05 0.000000e+00  
 -2.109045e-05 -7.570692e-05 0.000000e+00  
 -2.717111e-05 -9.650589e-05 0.000000e+00  
 -1.330200e-05 -8.774374e-05 0.000000e+00  
 1.945847e-05 -1.376863e-04 0.000000e+00  
 7.420506e-06 -1.104634e-04 0.000000e+00  
 -1.049406e-05 -1.171135e-04 0.000000e+00  
 3.957555e-05 -1.360047e-04 0.000000e+00  
 -5.695661e-05 -1.110370e-04 0.000000e+00  
 -7.803678e-05 -1.314795e-04 0.000000e+00  
 -1.268049e-04 -1.668212e-04 0.000000e+00  
 -1.682891e-04 -1.955864e-04 0.000000e+00  
 6.241042e-05 -1.746634e-04 0.000000e+00  
 8.943671e-05 -1.787741e-04 0.000000e+00  
 1.178993e-04 -2.140849e-04 0.000000e+00  
 1.506115e-04 -2.234336e-04 0.000000e+00  
 1.897969e-04 -2.642412e-04 0.000000e+00  
 2.302844e-04 -2.780527e-04 0.000000e+00  
 2.685617e-04 -3.129963e-04 0.000000e+00  
 3.360492e-04 -3.373961e-04 0.000000e+00  
 4.003013e-04 -4.161845e-04 0.000000e+00  
 -5.400272e-05 -1.115912e-04 0.000000e+00  
 -7.244078e-05 -1.252278e-04 0.000000e+00  
 -6.836859e-05 -1.426920e-04 0.000000e+00  
 -4.662520e-05 -1.313622e-04 0.000000e+00  
 -4.557014e-05 -1.613966e-04 0.000000e+00  
 -1.976052e-05 -1.492261e-04 0.000000e+00  
 6.468570e-05 -2.112809e-04 0.000000e+00  
 3.540153e-05 -2.132373e-04 0.000000e+00  
 -9.595134e-06 -1.847749e-04 0.000000e+00  
 1.712177e-05 -1.777511e-04 0.000000e+00  
 -1.121799e-04 -1.640658e-04 0.000000e+00  
 -1.410115e-04 -1.798037e-04 0.000000e+00  
 -1.917948e-04 -2.231400e-04 0.000000e+00  
 -2.428837e-04 -2.486324e-04 0.000000e+00  
 1.266924e-04 -2.569369e-04 0.000000e+00  
 9.207216e-05 -2.542193e-04 0.000000e+00  
 1.623631e-04 -3.019075e-04 0.000000e+00  
 2.008967e-04 -3.087204e-04 0.000000e+00  
 2.490977e-04 -3.612002e-04 0.000000e+00  
 2.954152e-04 -3.717065e-04 0.000000e+00  
 3.225570e-04 -3.957168e-04 0.000000e+00  
 3.654418e-04 -4.810115e-04 0.000000e+00  
 4.610167e-04 -5.066486e-04 0.000000e+00  
 -9.559501e-05 -1.773178e-04 0.000000e+00  
 -1.232495e-04 -1.829096e-04 0.000000e+00  
 -1.035079e-04 -2.000412e-04 0.000000e+00  
 -6.532036e-05 -2.038439e-04 0.000000e+00  
 -8.223141e-05 -2.160226e-04 0.000000e+00  
 -4.589452e-05 -2.400372e-04 0.000000e+00  
 -2.176611e-05 -2.289490e-04 0.000000e+00  
 9.157091e-05 -3.013699e-04 0.000000e+00  
 5.529674e-05 -3.040422e-04 0.000000e+00  
 3.012889e-05 -2.626452e-04 0.000000e+00  
 -5.191316e-07 -2.698346e-04 0.000000e+00  
 -1.702846e-04 -2.330113e-04 0.000000e+00  
 -2.058890e-04 -2.466378e-04 0.000000e+00  
 -2.552072e-04 -2.926250e-04 0.000000e+00  
 -3.161565e-04 -3.164141e-04 0.000000e+00  
 5.182013e-04 -6.059566e-04 0.000000e+00  
 1.654631e-04 -3.512329e-04 0.000000e+00  
 1.239962e-04 -3.493856e-04 0.000000e+00  
 3.068206e-04 -4.744567e-04 0.000000e+00  
 2.520022e-04 -4.111294e-04 0.000000e+00  
 2.072473e-04 -4.051220e-04 0.000000e+00  
 3.625490e-04 -4.862315e-04 0.000000e+00  
 4.249258e-04 -5.849862e-04 0.000000e+00  
 -1.770391e-04 -2.624259e-04 0.000000e+00  
 -1.520594e-04 -2.574141e-04 0.000000e+00  
 1.200758e-04 -4.057288e-04 0.000000e+00  
 -1.152638e-04 -2.851016e-04 0.000000e+00  
 -1.509588e-04 -2.956007e-04 0.000000e+00  
 -1.042355e-04 -3.119244e-04 0.000000e+00  
 -7.000722e-05 -3.026726e-04 0.000000e+00  
 -1.588297e-05 -3.312422e-04 0.000000e+00  
 -5.225377e-05 -3.385585e-04 0.000000e+00  
 6.438050e-06 -3.706464e-04 0.000000e+00  
 7.413352e-05 -4.074919e-04 0.000000e+00  
 4.751225e-05 -3.658434e-04 0.000000e+00  
 -2.303128e-04 -3.201858e-04 0.000000e+00  
 -2.692869e-04 -3.318036e-04 0.000000e+00  
 -3.129785e-04 -3.734416e-04 0.000000e+00  
 -3.850627e-04 -3.960967e-04 0.000000e+00  
 5.746244e-04 -7.202042e-04 0.000000e+00  
 4.136145e-04 -6.133693e-04 0.000000e+00  
 4.784512e-04 -7.033247e-04 0.000000e+00  
 1.555676e-04 -4.583467e-04 0.000000e+00  
 2.040320e-04 -4.603466e-04 0.000000e+00  
 3.588140e-04 -6.029146e-04 0.000000e+00  
 2.509639e-04 -5.232406e-04 0.000000e+00  
 2.990843e-04 -5.295210e-04 0.000000e+00  
 1.476035e-04 -5.198204e-04 0.000000e+00  
 -1.905761e-04 -3.517331e-04 0.000000e+00  
 -2.307081e-04 -3.627154e-04 0.000000e+00  
 6.481009e-05 -4.801208e-04 0.000000e+00  
 9.325121e-05 -5.221653e-04 0.000000e+00  
 -1.824209e-04 -3.950302e-04 0.000000e+00  
 -1.378122e-04 -3.841342e-04 0.000000e+00  
 -7.830444e-05 -4.123576e-04 0.000000e+00  
 -1.221742e-04 -4.207084e-04 0.000000e+00  
 -1.074131e-05 -4.446389e-04 0.000000e+00  
 -5.738509e-05 -4.514209e-04 0.000000e+00  
 1.412316e-05 -4.853495e-04 0.000000e+00  
 -4.464612e-04 -4.824371e-04 0.000000e+00  
 -2.815622e-04 -4.236107e-04 0.000000e+00  
 -3.332095e-04 -4.366942e-04 0.000000e+00  
 -3.600428e-04 -4.617648e-04 0.000000e+00  
 6.295736e-04 -8.506089e-04 0.000000e+00  
 4.645829e-04 -7.513910e-04 0.000000e+00  
 5.259353e-04 -8.339467e-04 0.000000e+00  
 3.407884e-04 -6.647988e-04 0.000000e+00  
 3.982465e-04 -7.409477e-04 0.000000e+00  
 2.396170e-04 -5.829222e-04 0.000000e+00  
 1.875023e-04 -5.806898e-04 0.000000e+00  
 2.917351e-04 -6.559915e-04 0.000000e+00  
 1.741929e-04 -6.418361e-04 0.000000e+00  
 8.362782e-05 -6.047550e-04 0.000000e+00  
 1.158206e-04 -6.459295e-04 0.000000e+00  
 -2.751841e-04 -4.735436e-04 0.000000e+00  
 -2.236642e-04 -4.602310e-04 0.000000e+00  
 -3.149684e-06 -5.673362e-04 0.000000e+00  
 2.967549e-05 -6.140685e-04 0.000000e+00  
 -1.580671e-04 -4.999319e-04 0.000000e+00  
 -2.085011e-04 -5.113539e-04 0.000000e+00  
 -1.354123e-04 -5.448796e-04 0.000000e+00  
 -8.434361e-05 -5.347249e-04 0.000000e+00  
 -5.705655e-05 -5.789212e-04 0.000000e+00  
 6.798969e-04 -9.906801e-04 0.000000e+00  
 7.246073e-04 -1.136119e-03 0.000000e+00  
 7.646156e-04 -1.287715e-03 0.000000e+00  
 8.015489e-04 -1.451412e-03 0.000000e+00  
 -3.972835e-04 -5.503801e-04 0.000000e+00  
 -5.041048e-04 -5.796264e-04 0.000000e+00  
 -3.239788e-04 -5.395124e-04 0.000000e+00  
 -3.927564e-04 -5.577088e-04 0.000000e+00  
 5.088351e-04 -8.975042e-04 0.000000e+00  
 5.633601e-04 -9.738362e-04 0.000000e+00  
 3.791000e-04 -8.095924e-04 0.000000e+00  
 3.116164e-04 -7.983663e-04 0.000000e+00  
 4.301998e-04 -8.833870e-04 0.000000e+00  
 2.651391e-04 -7.260320e-04 0.000000e+00  
 2.197330e-04 -7.158527e-04 0.000000e+00  
 1.797112e-04 -7.886968e-04 0.000000e+00  
 1.081274e-04 -7.438389e-04 0.000000e+00  
 7.363635e-05 -7.639007e-04 0.000000e+00  
 1.228750e-05 -7.004862e-04 0.000000e+00  
 -2.509742e-04 -5.822175e-04 0.000000e+00  
 -3.102923e-04 -5.967067e-04 0.000000e+00  
 -8.024790e-05 -6.639057e-04 0.000000e+00  
 -3.623427e-05 -7.215743e-04 0.000000e+00  
 -2.285798e-04 -6.457063e-04 0.000000e+00  
 -1.723376e-04 -6.320617e-04 0.000000e+00  
 -1.395079e-04 -6.856793e-04 0.000000e+00  
 5.462341e-04 -1.045504e-03 0.000000e+00  
 5.962756e-04 -1.121188e-03 0.000000e+00  
 5.788745e-04 -1.192231e-03 0.000000e+00  
 6.345165e-04 -1.277897e-03 0.000000e+00  
 6.133833e-04 -1.349285e-03 0.000000e+00  
 6.780415e-04 -1.445166e-03 0.000000e+00  
 6.485355e-04 -1.521810e-03 0.000000e+00  
 7.187778e-04 -1.621979e-03 0.000000e+00  
 8.360920e-04 -1.633118e-03 0.000000e+00  
 8.638303e-04 -1.810428e-03 0.000000e+00  
 -4.468623e-04 -6.593303e-04 0.000000e+00  
 -5.548122e-04 -6.781108e-04 0.000000e+00  
 -3.602815e-04 -6.700704e-04 0.000000e+00  
 -4.396524e-04 -6.794109e-04 0.000000e+00  
 4.055877e-04 -9.630949e-04 0.000000e+00  
 4.463594e-04 -1.029686e-03 0.000000e+00  
 1.999458e-04 -8.543034e-04 0.000000e+00  
 3.260321e-04 -9.427005e-04 0.000000e+00  
 2.882680e-04 -8.722945e-04 0.000000e+00  
 1.824293e-04 -8.943235e-04 0.000000e+00  
 6.113021e-05 -8.411977e-04 0.000000e+00  
 1.087296e-04 -9.062687e-04 0.000000e+00  
 -5.609008e-05 -8.046094e-04 0.000000e+00  
 -1.886044e-06 -8.661651e-04 0.000000e+00  
 -2.735120e-04 -7.226650e-04 0.000000e+00  
 -3.512429e-04 -7.199110e-04 0.000000e+00  
 -1.673800e-04 -7.735866e-04 0.000000e+00  
 -1.039281e-04 -8.283431e-04 0.000000e+00  
 -1.990561e-04 -7.931625e-04 0.000000e+00  
 -2.668127e-04 -7.654418e-04 0.000000e+00  
 4.273480e-04 -1.109301e-03 0.000000e+00  
 4.731990e-04 -1.186303e-03 0.000000e+00  
 5.147367e-04 -1.351206e-03 0.000000e+00  
 4.554909e-04 -1.258617e-03 0.000000e+00  
 4.937026e-04 -1.423469e-03 0.000000e+00  
 5.581710e-04 -1.524405e-03 0.000000e+00  
 5.323423e-04 -1.591211e-03 0.000000e+00  
 6.661790e-04 -1.720697e-03 0.000000e+00  
 5.999935e-04 -1.707899e-03 0.000000e+00  
 7.230458e-04 -1.805610e-03 0.000000e+00  
 6.959896e-04 -1.896621e-03 0.000000e+00  
 7.684273e-04 -1.991968e-03 0.000000e+00  
 8.877638e-04 -1.997333e-03 0.000000e+00  
 -4.985205e-04 -7.778782e-04 0.000000e+00  
 -6.071988e-04 -7.956431e-04 0.000000e+00  
 -4.104416e-04 -8.085223e-04 0.000000e+00  
 -4.842393e-04 -8.177500e-04 0.000000e+00  
 2.871071e-04 -1.030608e-03 0.000000e+00  
 3.246698e-04 -1.099034e-03 0.000000e+00  
 2.278157e-04 -1.012910e-03 0.000000e+00  
 1.691483e-04 -1.071745e-03 0.000000e+00  
 9.128572e-05 -9.996713e-04 0.000000e+00  
 3.965144e-05 -1.023340e-03 0.000000e+00  
 -1.989913e-05 -9.618495e-04 0.000000e+00  
 -8.028462e-05 -9.867783e-04 0.000000e+00  
 -1.304614e-04 -9.326927e-04 0.000000e+00  
 -3.872813e-04 -8.711909e-04 0.000000e+00  
 -3.352077e-04 -8.668355e-04 0.000000e+00  
 -1.944819e-04 -9.552577e-04 0.000000e+00  
 -3.002469e-04 -9.315672e-04 0.000000e+00  
 -2.317718e-04 -9.137955e-04 0.000000e+00  
 3.061774e-04 -1.185315e-03 0.000000e+00  
 3.614847e-04 -1.265806e-03 0.000000e+00  
 4.000947e-04 -1.432807e-03 0.000000e+00  
 3.432656e-04 -1.357187e-03 0.000000e+00  
 3.818722e-04 -1.532910e-03 0.000000e+00  
 4.402661e-04 -1.602698e-03 0.000000e+00  
 5.264912e-04 -1.788199e-03 0.000000e+00  
 4.239385e-04 -1.711127e-03 0.000000e+00  
 5.358965e-04 -1.864153e-03 0.000000e+00  
 5.942835e-04 -1.913066e-03 0.000000e+00  
 5.954073e-04 -2.064258e-03 0.000000e+00  
 7.121832e-04 -2.103694e-03 0.000000e+00  
 7.433760e-04 -2.167527e-03 0.000000e+00  
 9.067690e-04 -2.191229e-03 0.000000e+00  
 9.185735e-04 -2.348619e-03 0.000000e+00  
 9.277616e-04 -2.515719e-03 0.000000e+00  
 -5.452648e-04 -9.107276e-04 0.000000e+00  
 -6.577514e-04 -9.271872e-04 0.000000e+00  
 -4.494847e-04 -9.591126e-04 0.000000e+00  
 -5.257502e-04 -9.695094e-04 0.000000e+00  
 1.711072e-04 -1.140409e-03 0.000000e+00  
 2.189084e-04 -1.196893e-03 0.000000e+00  
 7.950451e-05 -1.184417e-03 0.000000e+00  
 2.411373e-05 -1.119622e-03 0.000000e+00  
 -5.015308e-05 -1.148971e-03 0.000000e+00  
 -1.016109e-04 -1.089682e-03 0.000000e+00  
 -1.768469e-04 -1.117708e-03 0.000000e+00  
 -2.218934e-04 -1.063096e-03 0.000000e+00  
 -4.195816e-04 -1.041076e-03 0.000000e+00  
 -3.445732e-04 -1.024473e-03 0.000000e+00  
 -3.038046e-04 -1.090715e-03 0.000000e+00  
 2.563698e-04 -1.370067e-03 0.000000e+00  
 2.079799e-04 -1.313882e-03 0.000000e+00  
 2.419046e-04 -1.488023e-03 0.000000e+00  
 2.968680e-04 -1.548777e-03 0.000000e+00  
 3.630264e-04 -1.739706e-03 0.000000e+00  
 2.813158e-04 -1.665887e-03 0.000000e+00  
 4.347456e-04 -1.922507e-03 0.000000e+00  
 3.513047e-04 -1.841040e-03 0.000000e+00  
 5.423281e-04 -2.099526e-03 0.000000e+00  
 4.312920e-04 -2.005723e-03 0.000000e+00  
 5.323656e-04 -2.167161e-03 0.000000e+00  
 6.965812e-04 -2.286867e-03 0.000000e+00  
 6.130663e-04 -2.282705e-03 0.000000e+00  
 7.430894e-04 -2.353064e-03 0.000000e+00  
 7.269118e-04 -2.476295e-03 0.000000e+00  
 7.799210e-04 -2.529883e-03 0.000000e+00  
 7.654631e-04 -2.678700e-03 0.000000e+00  
 9.337205e-04 -2.713027e-03 0.000000e+00  
 9.348173e-04 -2.861020e-03 0.000000e+00  
 -5.857882e-04 -1.057120e-03 0.000000e+00  
 -7.042618e-04 -1.067906e-03 0.000000e+00  
 -4.704663e-04 -1.119958e-03 0.000000e+00  
 -5.696255e-04 -1.118481e-03 0.000000e+00  
 1.193761e-04 -1.332589e-03 0.000000e+00  
 7.300497e-05 -1.279571e-03 0.000000e+00  
 -1.420739e-05 -1.311761e-03 0.000000e+00  
 -6.802409e-05 -1.253759e-03 0.000000e+00  
 -1.409067e-04 -1.283339e-03 0.000000e+00  
 -2.020930e-04 -1.225163e-03 0.000000e+00  
 -3.403020e-04 -1.192687e-03 0.000000e+00  
 -2.607601e-04 -1.252897e-03 0.000000e+00  
 -3.715011e-04 -1.210451e-03 0.000000e+00  
 -4.602427e-04 -1.179165e-03 0.000000e+00  
 1.071101e-04 -1.454931e-03 0.000000e+00  
 1.553612e-04 -1.507620e-03 0.000000e+00  
 1.418807e-04 -1.630915e-03 0.000000e+00  
 2.070954e-04 -1.694284e-03 0.000000e+00  
 1.945183e-04 -1.809096e-03 0.000000e+00  
 2.696040e-04 -1.880269e-03 0.000000e+00  
 3.489399e-04 -2.062372e-03 0.000000e+00  
 2.606404e-04 -1.985844e-03 0.000000e+00  
 3.465595e-04 -2.154748e-03 0.000000e+00  
 4.236733e-04 -2.224899e-03 0.000000e+00  
 5.365811e-04 -2.396476e-03 0.000000e+00  
 4.241216e-04 -2.325429e-03 0.000000e+00  
 5.503318e-04 -2.465002e-03 0.000000e+00  
 6.072366e-04 -2.507895e-03 0.000000e+00  
 6.141211e-04 -2.657597e-03 0.000000e+00  
 7.288077e-04 -2.707374e-03 0.000000e+00  
 7.250833e-04 -2.860204e-03 0.000000e+00  
 -6.354743e-04 -1.214752e-03 0.000000e+00  
 -7.488035e-04 -1.225238e-03 0.000000e+00  
 -5.390905e-04 -1.284851e-03 0.000000e+00  
 -6.044432e-04 -1.287447e-03 0.000000e+00  
 1.727013e-05 -1.478313e-03 0.000000e+00  
 -2.807799e-05 -1.428504e-03 0.000000e+00  
 -1.180355e-04 -1.455364e-03 0.000000e+00  
 -1.640773e-04 -1.405718e-03 0.000000e+00  
 -2.477202e-04 -1.429475e-03 0.000000e+00  
 -2.953731e-04 -1.378601e-03 0.000000e+00  
 -3.734520e-04 -1.398448e-03 0.000000e+00  
 -4.171625e-04 -1.349139e-03 0.000000e+00  
 -4.975450e-04 -1.364554e-03 0.000000e+00  
 3.011819e-06 -1.604601e-03 0.000000e+00  
 5.779536e-05 -1.660581e-03 0.000000e+00  
 4.499615e-05 -1.781726e-03 0.000000e+00  
 1.122006e-04 -1.845877e-03 0.000000e+00  
 1.012107e-04 -1.962165e-03 0.000000e+00  
 1.812620e-04 -2.031117e-03 0.000000e+00  
 2.552309e-04 -2.210705e-03 0.000000e+00  
 1.740101e-04 -2.142005e-03 0.000000e+00  
 3.475202e-04 -2.386730e-03 0.000000e+00  
 2.526732e-04 -2.317826e-03 0.000000e+00  
 4.350869e-04 -2.551401e-03 0.000000e+00  
 3.488697e-04 -2.484951e-03 0.000000e+00  
 4.424705e-04 -2.651781e-03 0.000000e+00  
 5.363053e-04 -2.711147e-03 0.000000e+00  
 5.372707e-04 -2.859984e-03 0.000000e+00  
 -6.775858e-04 -1.386380e-03 0.000000e+00  
 -7.899005e-04 -1.396186e-03 0.000000e+00  
 -5.506160e-04 -1.459172e-03 0.000000e+00  
 -6.381359e-04 -1.472869e-03 0.000000e+00  
 -1.364048e-04 -1.583435e-03 0.000000e+00  
 -8.836991e-05 -1.634742e-03 0.000000e+00  
 -2.772663e-04 -1.561950e-03 0.000000e+00  
 -2.326420e-04 -1.611752e-03 0.000000e+00  
 -3.687711e-04 -1.582660e-03 0.000000e+00  
 -4.151005e-04 -1.525278e-03 0.000000e+00  
 -5.046563e-04 -1.542999e-03 0.000000e+00  
 -4.223308e-05 -1.819393e-03 0.000000e+00  
 -1.033673e-04 -1.759158e-03 0.000000e+00  
 2.196055e-05 -2.004700e-03 0.000000e+00  
 -5.503341e-05 -1.939569e-03 0.000000e+00  
 9.086516e-05 -2.190596e-03 0.000000e+00  
 1.165262e-05 -2.124743e-03 0.000000e+00  
 8.410608e-05 -2.306698e-03 0.000000e+00  
 1.728427e-04 -2.374145e-03 0.000000e+00  
 2.587035e-04 -2.551280e-03 0.000000e+00  
 1.700830e-04 -2.482898e-03 0.000000e+00  
 2.589420e-04 -2.654209e-03 0.000000e+00  
 3.519811e-04 -2.722305e-03 0.000000e+00  
 3.533601e-04 -2.859963e-03 0.000000e+00  
 -6.962920e-04 -1.562136e-03 0.000000e+00  
 -8.260214e-04 -1.575907e-03 0.000000e+00  
 -5.534446e-04 -1.637761e-03 0.000000e+00  
 -6.570761e-04 -1.654763e-03 0.000000e+00  
 -2.533285e-04 -1.739614e-03 0.000000e+00  
 -1.978017e-04 -1.797702e-03 0.000000e+00  
 -3.563354e-04 -1.775272e-03 0.000000e+00  
 -4.080892e-04 -1.713702e-03 0.000000e+00  
 -5.044894e-04 -1.733311e-03 0.000000e+00  
 -2.135262e-04 -1.918851e-03 0.000000e+00  
 -1.337440e-04 -1.982065e-03 0.000000e+00  
 -1.466958e-04 -2.108235e-03 0.000000e+00  
 -7.128458e-05 -2.170536e-03 0.000000e+00  
 -8.068770e-05 -2.293643e-03 0.000000e+00  
 5.176360e-06 -2.357824e-03 0.000000e+00  
 -4.894142e-07 -2.476884e-03 0.000000e+00  
 8.454312e-05 -2.542458e-03 0.000000e+00  
 8.243274e-05 -2.652631e-03 0.000000e+00  
 1.719485e-04 -2.720489e-03 0.000000e+00  
 1.713893e-04 -2.859974e-03 0.000000e+00  
 -7.082041e-04 -1.741722e-03 0.000000e+00  
 -8.550824e-04 -1.750201e-03 0.000000e+00  
 -5.538153e-04 -1.828120e-03 0.000000e+00  
 -6.792161e-04 -1.823706e-03 0.000000e+00  
 -3.802951e-04 -1.900512e-03 0.000000e+00  
 -2.868094e-04 -1.960973e-03 0.000000e+00  
 -4.314947e-04 -1.932539e-03 0.000000e+00  
 -5.320733e-04 -1.899748e-03 0.000000e+00  
 -2.338779e-04 -2.152589e-03 0.000000e+00  
 -3.025445e-04 -2.095441e-03 0.000000e+00  
 -2.453263e-04 -2.281454e-03 0.000000e+00  
 -1.581242e-04 -2.341524e-03 0.000000e+00  
 -1.657220e-04 -2.470728e-03 0.000000e+00  
 -8.612617e-05 -2.531306e-03 0.000000e+00  