# vtk DataFile Version 1.0 
PolyMesh 
ASCII 
 
DATASET POLYDATA 
 
POINTS 496 float 
0.000000e+00 -2.000000e+00 0.000000e+00  
 2.666667e-01 -2.000000e+00 0.000000e+00  
 5.333333e-01 -2.000000e+00 0.000000e+00  
 8.000000e-01 -2.000000e+00 0.000000e+00  
 1.066667e+00 -2.000000e+00 0.000000e+00  
 1.333333e+00 -2.000000e+00 0.000000e+00  
 1.600000e+00 -2.000000e+00 0.000000e+00  
 1.866667e+00 -2.000000e+00 0.000000e+00  
 2.133333e+00 -2.000000e+00 0.000000e+00  
 2.400000e+00 -2.000000e+00 0.000000e+00  
 2.666667e+00 -2.000000e+00 0.000000e+00  
 2.933333e+00 -2.000000e+00 0.000000e+00  
 3.200000e+00 -2.000000e+00 0.000000e+00  
 3.466667e+00 -2.000000e+00 0.000000e+00  
 3.733333e+00 -2.000000e+00 0.000000e+00  
 4.000000e+00 -2.000000e+00 0.000000e+00  
 4.266667e+00 -2.000000e+00 0.000000e+00  
 4.533333e+00 -2.000000e+00 0.000000e+00  
 4.800000e+00 -2.000000e+00 0.000000e+00  
 5.066667e+00 -2.000000e+00 0.000000e+00  
 5.333333e+00 -2.000000e+00 0.000000e+00  
 5.600000e+00 -2.000000e+00 0.000000e+00  
 5.866667e+00 -2.000000e+00 0.000000e+00  
 6.133333e+00 -2.000000e+00 0.000000e+00  
 6.400000e+00 -2.000000e+00 0.000000e+00  
 6.666667e+00 -2.000000e+00 0.000000e+00  
 6.933333e+00 -2.000000e+00 0.000000e+00  
 7.200000e+00 -2.000000e+00 0.000000e+00  
 7.466667e+00 -2.000000e+00 0.000000e+00  
 7.733333e+00 -2.000000e+00 0.000000e+00  
 8.000000e+00 -2.000000e+00 0.000000e+00  
 0.000000e+00 -1.733333e+00 0.000000e+00  
 2.666667e-01 -1.733333e+00 0.000000e+00  
 5.333333e-01 -1.733333e+00 0.000000e+00  
 8.000000e-01 -1.733333e+00 0.000000e+00  
 1.066667e+00 -1.733333e+00 0.000000e+00  
 1.333333e+00 -1.733333e+00 0.000000e+00  
 1.600000e+00 -1.733333e+00 0.000000e+00  
 1.866667e+00 -1.733333e+00 0.000000e+00  
 2.133333e+00 -1.733333e+00 0.000000e+00  
 2.400000e+00 -1.733333e+00 0.000000e+00  
 2.666667e+00 -1.733333e+00 0.000000e+00  
 2.933333e+00 -1.733333e+00 0.000000e+00  
 3.200000e+00 -1.733333e+00 0.000000e+00  
 3.466667e+00 -1.733333e+00 0.000000e+00  
 3.733333e+00 -1.733333e+00 0.000000e+00  
 4.000000e+00 -1.733333e+00 0.000000e+00  
 4.266667e+00 -1.733333e+00 0.000000e+00  
 4.533333e+00 -1.733333e+00 0.000000e+00  
 4.800000e+00 -1.733333e+00 0.000000e+00  
 5.066667e+00 -1.733333e+00 0.000000e+00  
 5.333333e+00 -1.733333e+00 0.000000e+00  
 5.600000e+00 -1.733333e+00 0.000000e+00  
 5.866667e+00 -1.733333e+00 0.000000e+00  
 6.133333e+00 -1.733333e+00 0.000000e+00  
 6.400000e+00 -1.733333e+00 0.000000e+00  
 6.666667e+00 -1.733333e+00 0.000000e+00  
 6.933333e+00 -1.733333e+00 0.000000e+00  
 7.200000e+00 -1.733333e+00 0.000000e+00  
 7.466667e+00 -1.733333e+00 0.000000e+00  
 7.733333e+00 -1.733333e+00 0.000000e+00  
 8.000000e+00 -1.733333e+00 0.000000e+00  
 0.000000e+00 -1.466667e+00 0.000000e+00  
 2.666667e-01 -1.466667e+00 0.000000e+00  
 5.333333e-01 -1.466667e+00 0.000000e+00  
 8.000000e-01 -1.466667e+00 0.000000e+00  
 1.066667e+00 -1.466667e+00 0.000000e+00  
 1.333333e+00 -1.466667e+00 0.000000e+00  
 1.600000e+00 -1.466667e+00 0.000000e+00  
 1.866667e+00 -1.466667e+00 0.000000e+00  
 2.133333e+00 -1.466667e+00 0.000000e+00  
 2.400000e+00 -1.466667e+00 0.000000e+00  
 2.666667e+00 -1.466667e+00 0.000000e+00  
 2.933333e+00 -1.466667e+00 0.000000e+00  
 3.200000e+00 -1.466667e+00 0.000000e+00  
 3.466667e+00 -1.466667e+00 0.000000e+00  
 3.733333e+00 -1.466667e+00 0.000000e+00  
 4.000000e+00 -1.466667e+00 0.000000e+00  
 4.266667e+00 -1.466667e+00 0.000000e+00  
 4.533333e+00 -1.466667e+00 0.000000e+00  
 4.800000e+00 -1.466667e+00 0.000000e+00  
 5.066667e+00 -1.466667e+00 0.000000e+00  
 5.333333e+00 -1.466667e+00 0.000000e+00  
 5.600000e+00 -1.466667e+00 0.000000e+00  
 5.866667e+00 -1.466667e+00 0.000000e+00  
 6.133333e+00 -1.466667e+00 0.000000e+00  
 6.400000e+00 -1.466667e+00 0.000000e+00  
 6.666667e+00 -1.466667e+00 0.000000e+00  
 6.933333e+00 -1.466667e+00 0.000000e+00  
 7.200000e+00 -1.466667e+00 0.000000e+00  
 7.466667e+00 -1.466667e+00 0.000000e+00  
 7.733333e+00 -1.466667e+00 0.000000e+00  
 8.000000e+00 -1.466667e+00 0.000000e+00  
 0.000000e+00 -1.200000e+00 0.000000e+00  
 2.666667e-01 -1.200000e+00 0.000000e+00  
 5.333333e-01 -1.200000e+00 0.000000e+00  
 8.000000e-01 -1.200000e+00 0.000000e+00  
 1.066667e+00 -1.200000e+00 0.000000e+00  
 1.333333e+00 -1.200000e+00 0.000000e+00  
 1.600000e+00 -1.200000e+00 0.000000e+00  
 1.866667e+00 -1.200000e+00 0.000000e+00  
 2.133333e+00 -1.200000e+00 0.000000e+00  
 2.400000e+00 -1.200000e+00 0.000000e+00  
 2.666667e+00 -1.200000e+00 0.000000e+00  
 2.933333e+00 -1.200000e+00 0.000000e+00  
 3.200000e+00 -1.200000e+00 0.000000e+00  
 3.466667e+00 -1.200000e+00 0.000000e+00  
 3.733333e+00 -1.200000e+00 0.000000e+00  
 4.000000e+00 -1.200000e+00 0.000000e+00  
 4.266667e+00 -1.200000e+00 0.000000e+00  
 4.533333e+00 -1.200000e+00 0.000000e+00  
 4.800000e+00 -1.200000e+00 0.000000e+00  
 5.066667e+00 -1.200000e+00 0.000000e+00  
 5.333333e+00 -1.200000e+00 0.000000e+00  
 5.600000e+00 -1.200000e+00 0.000000e+00  
 5.866667e+00 -1.200000e+00 0.000000e+00  
 6.133333e+00 -1.200000e+00 0.000000e+00  
 6.400000e+00 -1.200000e+00 0.000000e+00  
 6.666667e+00 -1.200000e+00 0.000000e+00  
 6.933333e+00 -1.200000e+00 0.000000e+00  
 7.200000e+00 -1.200000e+00 0.000000e+00  
 7.466667e+00 -1.200000e+00 0.000000e+00  
 7.733333e+00 -1.200000e+00 0.000000e+00  
 8.000000e+00 -1.200000e+00 0.000000e+00  
 0.000000e+00 -9.333333e-01 0.000000e+00  
 2.666667e-01 -9.333333e-01 0.000000e+00  
 5.333333e-01 -9.333333e-01 0.000000e+00  
 8.000000e-01 -9.333333e-01 0.000000e+00  
 1.066667e+00 -9.333333e-01 0.000000e+00  
 1.333333e+00 -9.333333e-01 0.000000e+00  
 1.600000e+00 -9.333333e-01 0.000000e+00  
 1.866667e+00 -9.333333e-01 0.000000e+00  
 2.133333e+00 -9.333333e-01 0.000000e+00  
 2.400000e+00 -9.333333e-01 0.000000e+00  
 2.666667e+00 -9.333333e-01 0.000000e+00  
 2.933333e+00 -9.333333e-01 0.000000e+00  
 3.200000e+00 -9.333333e-01 0.000000e+00  
 3.466667e+00 -9.333333e-01 0.000000e+00  
 3.733333e+00 -9.333333e-01 0.000000e+00  
 4.000000e+00 -9.333333e-01 0.000000e+00  
 4.266667e+00 -9.333333e-01 0.000000e+00  
 4.533333e+00 -9.333333e-01 0.000000e+00  
 4.800000e+00 -9.333333e-01 0.000000e+00  
 5.066667e+00 -9.333333e-01 0.000000e+00  
 5.333333e+00 -9.333333e-01 0.000000e+00  
 5.600000e+00 -9.333333e-01 0.000000e+00  
 5.866667e+00 -9.333333e-01 0.000000e+00  
 6.133333e+00 -9.333333e-01 0.000000e+00  
 6.400000e+00 -9.333333e-01 0.000000e+00  
 6.666667e+00 -9.333333e-01 0.000000e+00  
 6.933333e+00 -9.333333e-01 0.000000e+00  
 7.200000e+00 -9.333333e-01 0.000000e+00  
 7.466667e+00 -9.333333e-01 0.000000e+00  
 7.733333e+00 -9.333333e-01 0.000000e+00  
 8.000000e+00 -9.333333e-01 0.000000e+00  
 0.000000e+00 -6.666667e-01 0.000000e+00  
 2.666667e-01 -6.666667e-01 0.000000e+00  
 5.333333e-01 -6.666667e-01 0.000000e+00  
 8.000000e-01 -6.666667e-01 0.000000e+00  
 1.066667e+00 -6.666667e-01 0.000000e+00  
 1.333333e+00 -6.666667e-01 0.000000e+00  
 1.600000e+00 -6.666667e-01 0.000000e+00  
 1.866667e+00 -6.666667e-01 0.000000e+00  
 2.133333e+00 -6.666667e-01 0.000000e+00  
 2.400000e+00 -6.666667e-01 0.000000e+00  
 2.666667e+00 -6.666667e-01 0.000000e+00  
 2.933333e+00 -6.666667e-01 0.000000e+00  
 3.200000e+00 -6.666667e-01 0.000000e+00  
 3.466667e+00 -6.666667e-01 0.000000e+00  
 3.733333e+00 -6.666667e-01 0.000000e+00  
 4.000000e+00 -6.666667e-01 0.000000e+00  
 4.266667e+00 -6.666667e-01 0.000000e+00  
 4.533333e+00 -6.666667e-01 0.000000e+00  
 4.800000e+00 -6.666667e-01 0.000000e+00  
 5.066667e+00 -6.666667e-01 0.000000e+00  
 5.333333e+00 -6.666667e-01 0.000000e+00  
 5.600000e+00 -6.666667e-01 0.000000e+00  
 5.866667e+00 -6.666667e-01 0.000000e+00  
 6.133333e+00 -6.666667e-01 0.000000e+00  
 6.400000e+00 -6.666667e-01 0.000000e+00  
 6.666667e+00 -6.666667e-01 0.000000e+00  
 6.933333e+00 -6.666667e-01 0.000000e+00  
 7.200000e+00 -6.666667e-01 0.000000e+00  
 7.466667e+00 -6.666667e-01 0.000000e+00  
 7.733333e+00 -6.666667e-01 0.000000e+00  
 8.000000e+00 -6.666667e-01 0.000000e+00  
 0.000000e+00 -4.000000e-01 0.000000e+00  
 2.666667e-01 -4.000000e-01 0.000000e+00  
 5.333333e-01 -4.000000e-01 0.000000e+00  
 8.000000e-01 -4.000000e-01 0.000000e+00  
 1.066667e+00 -4.000000e-01 0.000000e+00  
 1.333333e+00 -4.000000e-01 0.000000e+00  
 1.600000e+00 -4.000000e-01 0.000000e+00  
 1.866667e+00 -4.000000e-01 0.000000e+00  
 2.133333e+00 -4.000000e-01 0.000000e+00  
 2.400000e+00 -4.000000e-01 0.000000e+00  
 2.666667e+00 -4.000000e-01 0.000000e+00  
 2.933333e+00 -4.000000e-01 0.000000e+00  
 3.200000e+00 -4.000000e-01 0.000000e+00  
 3.466667e+00 -4.000000e-01 0.000000e+00  
 3.733333e+00 -4.000000e-01 0.000000e+00  
 4.000000e+00 -4.000000e-01 0.000000e+00  
 4.266667e+00 -4.000000e-01 0.000000e+00  
 4.533333e+00 -4.000000e-01 0.000000e+00  
 4.800000e+00 -4.000000e-01 0.000000e+00  
 5.066667e+00 -4.000000e-01 0.000000e+00  
 5.333333e+00 -4.000000e-01 0.000000e+00  
 5.600000e+00 -4.000000e-01 0.000000e+00  
 5.866667e+00 -4.000000e-01 0.000000e+00  
 6.133333e+00 -4.000000e-01 0.000000e+00  
 6.400000e+00 -4.000000e-01 0.000000e+00  
 6.666667e+00 -4.000000e-01 0.000000e+00  
 6.933333e+00 -4.000000e-01 0.000000e+00  
 7.200000e+00 -4.000000e-01 0.000000e+00  
 7.466667e+00 -4.000000e-01 0.000000e+00  
 7.733333e+00 -4.000000e-01 0.000000e+00  
 8.000000e+00 -4.000000e-01 0.000000e+00  
 0.000000e+00 -1.333333e-01 0.000000e+00  
 2.666667e-01 -1.333333e-01 0.000000e+00  
 5.333333e-01 -1.333333e-01 0.000000e+00  
 8.000000e-01 -1.333333e-01 0.000000e+00  
 1.066667e+00 -1.333333e-01 0.000000e+00  
 1.333333e+00 -1.333333e-01 0.000000e+00  
 1.600000e+00 -1.333333e-01 0.000000e+00  
 1.866667e+00 -1.333333e-01 0.000000e+00  
 2.133333e+00 -1.333333e-01 0.000000e+00  
 2.400000e+00 -1.333333e-01 0.000000e+00  
 2.666667e+00 -1.333333e-01 0.000000e+00  
 2.933333e+00 -1.333333e-01 0.000000e+00  
 3.200000e+00 -1.333333e-01 0.000000e+00  
[...]
 POINT_DATA 496 
 VECTORS Displacement float 
 1.397500e-04 -1.170000e-04 0.000000e+00  
 6.819192e-05 -1.179047e-04 0.000000e+00  
 -9.447204e-07 -1.282012e-04 0.000000e+00  
 -6.765658e-05 -1.475564e-04 0.000000e+00  
 -1.319426e-04 -1.756462e-04 0.000000e+00  
 -1.938025e-04 -2.121462e-04 0.000000e+00  
 -2.532365e-04 -2.567329e-04 0.000000e+00  
 -3.102444e-04 -3.090824e-04 0.000000e+00  
 -3.648264e-04 -3.688714e-04 0.000000e+00  
 -4.169825e-04 -4.357763e-04 0.000000e+00  
 -4.667127e-04 -5.094736e-04 0.000000e+00  
 -5.140170e-04 -5.896398e-04 0.000000e+00  
 -5.588954e-04 -6.759516e-04 0.000000e+00  
 -6.013479e-04 -7.680854e-04 0.000000e+00  
 -6.413746e-04 -8.657178e-04 0.000000e+00  
 -6.789754e-04 -9.685254e-04 0.000000e+00  
 -7.141504e-04 -1.076185e-03 0.000000e+00  
 -7.468995e-04 -1.188372e-03 0.000000e+00  
 -7.772228e-04 -1.304764e-03 0.000000e+00  
 -8.051204e-04 -1.425038e-03 0.000000e+00  
 -8.305923e-04 -1.548869e-03 0.000000e+00  
 -8.536387e-04 -1.675935e-03 0.000000e+00  
 -8.742599e-04 -1.805911e-03 0.000000e+00  
 -8.924565e-04 -1.938475e-03 0.000000e+00  
 -9.082293e-04 -2.073304e-03 0.000000e+00  
 -9.215796e-04 -2.210075e-03 0.000000e+00  
 -9.325101e-04 -2.348466e-03 0.000000e+00  
 -9.410249e-04 -2.488158e-03 0.000000e+00  
 -9.471336e-04 -2.628844e-03 0.000000e+00  
 -9.508444e-04 -2.770219e-03 0.000000e+00  
 -9.521700e-04 -2.912292e-03 0.000000e+00  
 1.330343e-04 -8.788000e-05 0.000000e+00  
 7.101036e-05 -8.976519e-05 0.000000e+00  
 1.109244e-05 -1.010313e-04 0.000000e+00  
 -4.672354e-05 -1.213570e-04 0.000000e+00  
 -1.024374e-04 -1.504171e-04 0.000000e+00  
 -1.560490e-04 -1.878875e-04 0.000000e+00  
 -2.075582e-04 -2.334445e-04 0.000000e+00  
 -2.569650e-04 -2.867645e-04 0.000000e+00  
 -3.042693e-04 -3.475238e-04 0.000000e+00  
 -3.494712e-04 -4.153990e-04 0.000000e+00  
 -3.925707e-04 -4.900667e-04 0.000000e+00  
 -4.335677e-04 -5.712033e-04 0.000000e+00  
 -4.724624e-04 -6.584854e-04 0.000000e+00  
 -5.092546e-04 -7.515896e-04 0.000000e+00  
 -5.439444e-04 -8.501923e-04 0.000000e+00  
 -5.765318e-04 -9.539702e-04 0.000000e+00  
 -6.070168e-04 -1.062600e-03 0.000000e+00  
 -6.353994e-04 -1.175758e-03 0.000000e+00  
 -6.616796e-04 -1.293120e-03 0.000000e+00  
 -6.858575e-04 -1.414364e-03 0.000000e+00  
 -7.079331e-04 -1.539166e-03 0.000000e+00  
 -7.279066e-04 -1.667201e-03 0.000000e+00  
 -7.457781e-04 -1.798148e-03 0.000000e+00  
 -7.615478e-04 -1.931682e-03 0.000000e+00  
 -7.752161e-04 -2.067480e-03 0.000000e+00  
 -7.867832e-04 -2.205220e-03 0.000000e+00  
 -7.962493e-04 -2.344580e-03 0.000000e+00  
 -8.036136e-04 -2.485241e-03 0.000000e+00  
 -8.088720e-04 -2.626891e-03 0.000000e+00  
 -8.120096e-04 -2.769253e-03 0.000000e+00  
 -8.130943e-04 -2.911996e-03 0.000000e+00  
 1.212110e-04 -6.292000e-05 0.000000e+00  
 6.872797e-05 -6.564171e-05 0.000000e+00  
 1.802614e-05 -7.774232e-05 0.000000e+00  
 -3.089543e-05 -9.890022e-05 0.000000e+00  
 -7.803783e-05 -1.287922e-04 0.000000e+00  
 -1.234013e-04 -1.670944e-04 0.000000e+00  
 -1.669858e-04 -2.134832e-04 0.000000e+00  
 -2.087914e-04 -2.676348e-04 0.000000e+00  
 -2.488181e-04 -3.292259e-04 0.000000e+00  
 -2.870658e-04 -3.979328e-04 0.000000e+00  
 -3.235346e-04 -4.734322e-04 0.000000e+00  
 -3.582244e-04 -5.554005e-04 0.000000e+00  
 -3.911352e-04 -6.435144e-04 0.000000e+00  
 -4.222671e-04 -7.374503e-04 0.000000e+00  
 -4.516200e-04 -8.368848e-04 0.000000e+00  
 -4.791939e-04 -9.414944e-04 0.000000e+00  
 -5.049889e-04 -1.050956e-03 0.000000e+00  
 -5.290049e-04 -1.164945e-03 0.000000e+00  
 -5.512420e-04 -1.283140e-03 0.000000e+00  
 -5.717001e-04 -1.405215e-03 0.000000e+00  
 -5.903792e-04 -1.530848e-03 0.000000e+00  
 -6.072793e-04 -1.659716e-03 0.000000e+00  
 -6.224004e-04 -1.791494e-03 0.000000e+00  
 -6.357424e-04 -1.925860e-03 0.000000e+00  
 -6.473049e-04 -2.062490e-03 0.000000e+00  
 -6.570875e-04 -2.201063e-03 0.000000e+00  
 -6.650891e-04 -2.341255e-03 0.000000e+00  
 -6.713077e-04 -2.482750e-03 0.000000e+00  
 -6.757411e-04 -2.625234e-03 0.000000e+00  
 -6.784045e-04 -2.768389e-03 0.000000e+00  
 -6.793212e-04 -2.911841e-03 0.000000e+00  
 1.050660e-04 -4.212000e-05 0.000000e+00  
 6.212468e-05 -4.553759e-05 0.000000e+00  
 2.064057e-05 -5.833360e-05 0.000000e+00  
 -1.938683e-05 -8.018581e-05 0.000000e+00  
 -5.795811e-05 -1.107713e-04 0.000000e+00  
 -9.507367e-05 -1.497668e-04 0.000000e+00  
 -1.307337e-04 -1.968487e-04 0.000000e+00  
 -1.649382e-04 -2.516935e-04 0.000000e+00  
 -1.976872e-04 -3.139777e-04 0.000000e+00  
 -2.289807e-04 -3.833777e-04 0.000000e+00  
 -2.588188e-04 -4.595702e-04 0.000000e+00  
 -2.872013e-04 -5.422316e-04 0.000000e+00  
 -3.141284e-04 -6.310385e-04 0.000000e+00  
 -3.395999e-04 -7.256675e-04 0.000000e+00  
 -3.636159e-04 -8.257951e-04 0.000000e+00  
 -3.861764e-04 -9.310979e-04 0.000000e+00  
 -4.072813e-04 -1.041252e-03 0.000000e+00  
 -4.269307e-04 -1.155935e-03 0.000000e+00  
 -4.451246e-04 -1.274822e-03 0.000000e+00  
 -4.618628e-04 -1.397591e-03 0.000000e+00  
 -4.771453e-04 -1.523918e-03 0.000000e+00  
 -4.909720e-04 -1.653479e-03 0.000000e+00  
 -5.033427e-04 -1.785951e-03 0.000000e+00  
 -5.142571e-04 -1.921010e-03 0.000000e+00  
 -5.237146e-04 -2.058335e-03 0.000000e+00  
 -5.317146e-04 -2.197601e-03 0.000000e+00  
 -5.382565e-04 -2.338488e-03 0.000000e+00  
 -5.433401e-04 -2.480676e-03 0.000000e+00  
 -5.469701e-04 -2.623842e-03 0.000000e+00  
 -5.491561e-04 -2.767654e-03 0.000000e+00  
 -5.499038e-04 -2.911756e-03 0.000000e+00  
 8.538496e-05 -2.548000e-05 0.000000e+00  
 5.198588e-05 -2.945383e-05 0.000000e+00  
 1.972005e-05 -4.280597e-05 0.000000e+00  
 -1.141275e-05 -6.521381e-05 0.000000e+00  
 -4.141288e-05 -9.635444e-05 0.000000e+00  
 -7.028063e-05 -1.359047e-04 0.000000e+00  
 -9.801619e-05 -1.835412e-04 0.000000e+00  
 -1.246197e-04 -2.389405e-04 0.000000e+00  
 -1.500911e-04 -3.017791e-04 0.000000e+00  
 -1.744305e-04 -3.717336e-04 0.000000e+00  
 -1.976378e-04 -4.484806e-04 0.000000e+00  
 -2.197131e-04 -5.316964e-04 0.000000e+00  
 -2.406563e-04 -6.210579e-04 0.000000e+00  
 -2.604675e-04 -7.162413e-04 0.000000e+00  
 -2.791466e-04 -8.169234e-04 0.000000e+00  
 -2.966936e-04 -9.227807e-04 0.000000e+00  
 -3.131086e-04 -1.033490e-03 0.000000e+00  
 -3.283914e-04 -1.148727e-03 0.000000e+00  
 -3.425420e-04 -1.268169e-03 0.000000e+00  
 -3.555604e-04 -1.391492e-03 0.000000e+00  
 -3.674465e-04 -1.518374e-03 0.000000e+00  
 -3.782000e-04 -1.648490e-03 0.000000e+00  
 -3.878207e-04 -1.781517e-03 0.000000e+00  
 -3.963082e-04 -1.917132e-03 0.000000e+00  
 -4.036622e-04 -2.055012e-03 0.000000e+00  
 -4.098824e-04 -2.194834e-03 0.000000e+00  
 -4.149688e-04 -2.336276e-03 0.000000e+00  
 -4.189231e-04 -2.479013e-03 0.000000e+00  
 -4.217494e-04 -2.622721e-03 0.000000e+00  
 -4.234524e-04 -2.767065e-03 0.000000e+00  
 -4.240324e-04 -2.911703e-03 0.000000e+00  
 6.295370e-05 -1.300000e-05 0.000000e+00  
 3.909709e-05 -1.739083e-05 0.000000e+00  
 1.604989e-05 -3.115995e-05 0.000000e+00  
 -6.188024e-06 -5.398452e-05 0.000000e+00  
 -2.761683e-05 -8.554159e-05 0.000000e+00  
 -4.823673e-05 -1.255080e-04 0.000000e+00  
 -6.804787e-05 -1.735605e-04 0.000000e+00  
 -8.705035e-05 -2.293757e-04 0.000000e+00  
 -1.052442e-04 -2.926302e-04 0.000000e+00  
 -1.226295e-04 -3.630006e-04 0.000000e+00  
 -1.392061e-04 -4.401634e-04 0.000000e+00  
 -1.549742e-04 -5.237951e-04 0.000000e+00  
 -1.699336e-04 -6.135724e-04 0.000000e+00  
 -1.840844e-04 -7.091717e-04 0.000000e+00  
 -1.974266e-04 -8.102697e-04 0.000000e+00  
 -2.099602e-04 -9.165428e-04 0.000000e+00  
 -2.216851e-04 -1.027668e-03 0.000000e+00  
 -2.326014e-04 -1.143321e-03 0.000000e+00  
 -2.427089e-04 -1.263179e-03 0.000000e+00  
 -2.520076e-04 -1.386918e-03 0.000000e+00  
 -2.604974e-04 -1.514216e-03 0.000000e+00  
 -2.681781e-04 -1.644748e-03 0.000000e+00  
 -2.750494e-04 -1.778192e-03 0.000000e+00  
 -2.811112e-04 -1.914224e-03 0.000000e+00  
 -2.863631e-04 -2.052521e-03 0.000000e+00  
 -2.908052e-04 -2.192759e-03 0.000000e+00  
 -2.944381e-04 -2.334615e-03 0.000000e+00  
 -2.972635e-04 -2.477764e-03 0.000000e+00  
 -2.992838e-04 -2.621877e-03 0.000000e+00  
 -3.005012e-04 -2.766624e-03 0.000000e+00  
 -3.009147e-04 -2.911671e-03 0.000000e+00  
 3.855800e-05 -4.680000e-06 0.000000e+00  
 2.424399e-05 -9.348750e-06 0.000000e+00  
 1.041560e-05 -2.339581e-05 0.000000e+00  
 -2.927219e-06 -4.649821e-05 0.000000e+00  
 -1.578456e-05 -7.833292e-05 0.000000e+00  
 -2.815654e-05 -1.185768e-04 0.000000e+00  
 -4.004324e-05 -1.669067e-04 0.000000e+00  
 -5.144473e-05 -2.229992e-04 0.000000e+00  
 -6.236104e-05 -2.865309e-04 0.000000e+00  
 -7.279218e-05 -3.571786e-04 0.000000e+00  
 -8.273817e-05 -4.346186e-04 0.000000e+00  
 -9.219899e-05 -5.185276e-04 0.000000e+00  
 -1.011747e-04 -6.085821e-04 0.000000e+00  
 -1.096651e-04 -7.044586e-04 0.000000e+00  
 -1.176705e-04 -8.058338e-04 0.000000e+00  
 -1.251906e-04 -9.123843e-04 0.000000e+00  
 -1.322255e-04 -1.023786e-03 0.000000e+00  
 -1.387753e-04 -1.139717e-03 0.000000e+00  
 -1.448397e-04 -1.259852e-03 0.000000e+00  
 -1.504189e-04 -1.383869e-03 0.000000e+00  
 -1.555126e-04 -1.511445e-03 0.000000e+00  
 -1.601208e-04 -1.642255e-03 0.000000e+00  
 -1.642434e-04 -1.775976e-03 0.000000e+00  
 -1.678801e-04 -1.912286e-03 0.000000e+00  
 -1.710310e-04 -2.050860e-03 0.000000e+00  
 -1.736960e-04 -2.191376e-03 0.000000e+00  
 -1.758759e-04 -2.333507e-03 0.000000e+00  
 -1.775715e-04 -2.476929e-03 0.000000e+00  
 -1.787843e-04 -2.621314e-03 0.000000e+00  
 -1.795149e-04 -2.766331e-03 0.000000e+00  
 -1.797627e-04 -2.911651e-03 0.000000e+00  
 1.298363e-05 -5.200000e-07 0.000000e+00  
 8.212285e-06 -5.327693e-06 0.000000e+00  
 3.602812e-06 -1.951371e-05 0.000000e+00  
 -8.448057e-07 -4.275501e-05 0.000000e+00  
 -5.130596e-06 -7.472856e-05 0.000000e+00  
 -9.254594e-06 -1.151112e-04 0.000000e+00  
 -1.321683e-05 -1.635798e-04 0.000000e+00  
 -1.701733e-05 -2.198109e-04 0.000000e+00  
 -2.065610e-05 -2.834813e-04 0.000000e+00  
 -2.413314e-05 -3.542675e-04 0.000000e+00  
 -2.744847e-05 -4.318462e-04 0.000000e+00  
 -3.060208e-05 -5.158938e-04 0.000000e+00  
 -3.359397e-05 -6.060869e-04 0.000000e+00  
 -3.642413e-05 -7.021021e-04 0.000000e+00  
 -3.909257e-05 -8.036159e-04 0.000000e+00  
 -4.159928e-05 -9.103050e-04 0.000000e+00  
 -4.394426e-05 -1.021846e-03 0.000000e+00  
 -4.612749e-05 -1.137915e-03 0.000000e+00  
 -4.814897e-05 -1.258189e-03 0.000000e+00  
 -5.000867e-05 -1.382345e-03 0.000000e+00  
 -5.170657e-05 -1.510059e-03 0.000000e+00  
 -5.324261e-05 -1.641008e-03 0.000000e+00  
 -5.461675e-05 -1.774868e-03 0.000000e+00  
 -5.582895e-05 -1.911317e-03 0.000000e+00  
 -5.687918e-05 -2.050030e-03 0.000000e+00  
 -5.776751e-05 -2.190684e-03 0.000000e+00  
 -5.849414e-05 -2.332953e-03 0.000000e+00  
 -5.905943e-05 -2.476512e-03 0.000000e+00  
 -5.946376e-05 -2.621032e-03 0.000000e+00  
 -5.970734e-05 -2.766185e-03 0.000000e+00  
 -5.978990e-05 -2.911642e-03 0.000000e+00  
 -1.298363e-05 -5.200000e-07 0.000000e+00  
 -8.212285e-06 -5.327693e-06 0.000000e+00  
 -3.602812e-06 -1.951371e-05 0.000000e+00  
 8.448057e-07 -4.275501e-05 0.000000e+00  
 5.130596e-06 -7.472856e-05 0.000000e+00  
 9.254594e-06 -1.151112e-04 0.000000e+00  
 1.321683e-05 -1.635798e-04 0.000000e+00  
 1.701733e-05 -2.198109e-04 0.000000e+00  
 2.065610e-05 -2.834813e-04 0.000000e+00  
 2.413314e-05 -3.542675e-04 0.000000e+00  
 2.744847e-05 -4.318462e-04 0.000000e+00  
 3.060208e-05 -5.158938e-04 0.000000e+00  
 3.359397e-05 -6.060869e-04 0.000000e+00  
 3.642413e-05 -7.021021e-04 0.000000e+00  
 3.909257e-05 -8.036159e-04 0.000000e+00  
 4.159928e-05 -9.103050e-04 0.000000e+00  
 4.394426e-05 -1.021846e-03 0.000000e+00  
 4.612749e-05 -1.137915e-03 0.000000e+00  
 4.814897e-05 -1.258189e-03 0.000000e+00  
 5.000867e-05 -1.382345e-03 0.000000e+00  
 5.170657e-05 -1.510059e-03 0.000000e+00  
 5.324261e-05 -1.641008e-03 0.000000e+00  
 5.461675e-05 -1.774868e-03 0.000000e+00  
 5.582895e-05 -1.911317e-03 0.000000e+00  
 5.687918e-05 -2.050030e-03 0.000000e+00  
 5.776751e-05 -2.190684e-03 0.000000e+00  
 5.849414e-05 -2.332953e-03 0.000000e+00  
 5.905943e-05 -2.476512e-03 0.000000e+00  
 5.946376e-05 -2.621032e-03 0.000000e+00  
 5.970734e-05 -2.766185e-03 0.000000e+00  
 5.978990e-05 -2.911642e-03 0.000000e+00  
 -3.855800e-05 -4.680000e-06 0.000000e+00  
 -2.424399e-05 -9.348750e-06 0.000000e+00  
 -1.041560e-05 -2.339581e-05 0.000000e+00  
 2.927219e-06 -4.649821e-05 0.000000e+00  
 1.578456e-05 -7.833292e-05 0.000000e+00  
 2.815654e-05 -1.185768e-04 0.000000e+00  
 4.004324e-05 -1.669067e-04 0.000000e+00  
 5.144473e-05 -2.229992e-04 0.000000e+00  
 6.236104e-05 -2.865309e-04 0.000000e+00  
 7.279218e-05 -3.571786e-04 0.000000e+00  
 8.273817e-05 -4.346186e-04 0.000000e+00  
 9.219899e-05 -5.185276e-04 0.000000e+00  
 1.011747e-04 -6.085821e-04 0.000000e+00  
 1.096651e-04 -7.044586e-04 0.000000e+00  
 1.176705e-04 -8.058338e-04 0.000000e+00  
 1.251906e-04 -9.123843e-04 0.000000e+00  
 1.322255e-04 -1.023786e-03 0.000000e+00  
 1.387753e-04 -1.139717e-03 0.000000e+00  
 1.448397e-04 -1.259852e-03 0.000000e+00  
 1.504189e-04 -1.383869e-03 0.000000e+00  
 1.555126e-04 -1.511445e-03 0.000000e+00  
 1.601208e-04 -1.642255e-03 0.000000e+00  
 1.642434e-04 -1.775976e-03 0.000000e+00  
 1.678801e-04 -1.912286e-03 0.000000e+00  
 1.710310e-04 -2.050860e-03 0.000000e+00  
 1.736960e-04 -2.191376e-03 0.000000e+00  
 1.758759e-04 -2.333507e-03 0.000000e+00  
 1.775715e-04 -2.476929e-03 0.000000e+00  
 1.787843e-04 -2.621314e-03 0.000000e+00  
 1.795149e-04 -2.766331e-03 0.000000e+00  
 1.797627e-04 -2.911651e-03 0.000000e+00  
 -6.295370e-05 -1.300000e-05 0.000000e+00  
 -3.909709e-05 -1.739083e-05 0.000000e+00  
 -1.604989e-05 -3.115995e-05 0.000000e+00  
 6.188024e-06 -5.398452e-05 0.000000e+00  
 2.761683e-05 -8.554159e-05 0.000000e+00  
 4.823673e-05 -1.255080e-04 0.000000e+00  
 6.804787e-05 -1.735605e-04 0.000000e+00  
 8.705035e-05 -2.293757e-04 0.000000e+00  
 1.052442e-04 -2.926302e-04 0.000000e+00  
 1.226295e-04 -3.630006e-04 0.000000e+00  
 1.392061e-04 -4.401634e-04 0.000000e+00  
 1.549742e-04 -5.237951e-04 0.000000e+00  
 1.699336e-04 -6.135724e-04 0.000000e+00  
 1.840844e-04 -7.091717e-04 0.000000e+00  
 1.974266e-04 -8.102697e-04 0.000000e+00  
 2.099602e-04 -9.165428e-04 0.000000e+00  
 2.216851e-04 -1.027668e-03 0.000000e+00  
 2.326014e-04 -1.143321e-03 0.000000e+00  
 2.427089e-04 -1.263179e-03 0.000000e+00  
 2.520076e-04 -1.386918e-03 0.000000e+00  
 2.604974e-04 -1.514216e-03 0.000000e+00  
 2.681781e-04 -1.644748e-03 0.000000e+00  
 2.750494e-04 -1.778192e-03 0.000000e+00  
 2.811112e-04 -1.914224e-03 0.000000e+00  
 2.863631e-04 -2.052521e-03 0.000000e+00  
 2.908052e-04 -2.192759e-03 0.000000e+00  
 2.944381e-04 -2.334615e-03 0.000000e+00  
 2.972635e-04 -2.477764e-03 0.000000e+00  
 2.992838e-04 -2.621877e-03 0.000000e+00  
 3.005012e-04 -2.766624e-03 0.000000e+00  
 3.009147e-04 -2.911671e-03 0.000000e+00  
 -8.538496e-05 -2.548000e-05 0.000000e+00  
 -5.198588e-05 -2.945383e-05 0.000000e+00  
 -1.972005e-05 -4.280597e-05 0.000000e+00  
 1.141275e-05 -6.521381e-05 0.000000e+00  
 4.141288e-05 -9.635444e-05 0.000000e+00  
 7.028063e-05 -1.359047e-04 0.000000e+00  
 9.801619e-05 -1.835412e-04 0.000000e+00  
 1.246197e-04 -2.389405e-04 0.000000e+00  
 1.500911e-04 -3.017791e-04 0.000000e+00  
 1.744305e-04 -3.717336e-04 0.000000e+00  
 1.976378e-04 -4.484806e-04 0.000000e+00  
 2.197131e-04 -5.316964e-04 0.000000e+00  
 2.406563e-04 -6.210579e-04 0.000000e+00  
 2.604675e-04 -7.162413e-04 0.000000e+00  
 2.791466e-04 -8.169234e-04 0.000000e+00  
 2.966936e-04 -9.227807e-04 0.000000e+00  
 3.131086e-04 -1.033490e-03 0.000000e+00  
 3.283914e-04 -1.148727e-03 0.000000e+00  
 3.425420e-04 -1.268169e-03 0.000000e+00  
 3.555604e-04 -1.391492e-03 0.000000e+00  
 3.674465e-04 -1.518374e-03 0.000000e+00  
 3.782000e-04 -1.648490e-03 0.000000e+00  
 3.878207e-04 -1.781517e-03 0.000000e+00  
 3.963082e-04 -1.917132e-03 0.000000e+00  
 4.036622e-04 -2.055012e-03 0.000000e+00  
 4.098824e-04 -2.194834e-03 0.000000e+00  
 4.149688e-04 -2.336276e-03 0.000000e+00  
 4.189231e-04 -2.479013e-03 0.000000e+00  
 4.217494e-04 -2.622721e-03 0.000000e+00  
 4.234524e-04 -2.767065e-03 0.000000e+00  
 4.240324e-04 -2.911703e-03 0.000000e+00  
 -1.050660e-04 -4.212000e-05 0.000000e+00  
 -6.212468e-05 -4.553759e-05 0.000000e+00  
 -2.064057e-05 -5.833360e-05 0.000000e+00  
 1.938683e-05 -8.018581e-05 0.000000e+00  
 5.795811e-05 -1.107713e-04 0.000000e+00  
 9.507367e-05 -1.497668e-04 0.000000e+00  
 1.307337e-04 -1.968487e-04 0.000000e+00  
 1.649382e-04 -2.516935e-04 0.000000e+00  
 1.976872e-04 -3.139777e-04 0.000000e+00  
 2.289807e-04 -3.833777e-04 0.000000e+00  
 2.588188e-04 -4.595702e-04 0.000000e+00  
 2.872013e-04 -5.422316e-04 0.000000e+00  
 3.141284e-04 -6.310385e-04 0.000000e+00  
 3.395999e-04 -7.256675e-04 0.000000e+00  
 3.636159e-04 -8.257951e-04 0.000000e+00  
 3.861764e-04 -9.310979e-04 0.000000e+00  
 4.072813e-04 -1.041252e-03 0.000000e+00  
 4.269307e-04 -1.155935e-03 0.000000e+00  
 4.451246e-04 -1.274822e-03 0.000000e+00  
 4.618628e-04 -1.397591e-03 0.000000e+00  
 4.771453e-04 -1.523918e-03 0.000000e+00  
 4.909720e-04 -1.653479e-03 0.000000e+00  
 5.033427e-04 -1.785951e-03 0.000000e+00  
 5.142571e-04 -1.921010e-03 0.000000e+00  
 5.237146e-04 -2.058335e-03 0.000000e+00  
 5.317146e-04 -2.197601e-03 0.000000e+00  
 5.382565e-04 -2.338488e-03 0.000000e+00  
 5.433401e-04 -2.480676e-03 0.000000e+00  
 5.469701e-04 -2.623842e-03 0.000000e+00  
 5.491561e-04 -2.767654e-03 0.000000e+00  
 5.499038e-04 -2.911756e-03 0.000000e+00  
 -1.212110e-04 -6.292000e-05 0.000000e+00  
 -6.872797e-05 -6.564171e-05 0.000000e+00  
 -1.802614e-05 -7.774232e-05 0.000000e+00  
 3.089543e-05 -9.890022e-05 0.000000e+00  
 7.803783e-05 -1.287922e-04 0.000000e+00  
 1.234013e-04 -1.670944e-04 0.000000e+00  
 1.669858e-04 -2.134832e-04 0.000000e+00  
 2.087914e-04 -2.676348e-04 0.000000e+00  
 2.488181e-04 -3.292259e-04 0.000000e+00  
 2.870658e-04 -3.979328e-04 0.000000e+00  
 3.235346e-04 -4.734322e-04 0.000000e+00  
 3.582244e-04 -5.554005e-04 0.000000e+00  
 3.911352e-04 -6.435144e-04 0.000000e+00  
 4.222671e-04 -7.374503e-04 0.000000e+00  
 4.516200e-04 -8.368848e-04 0.000000e+00  
 4.791939e-04 -9.414944e-04 0.000000e+00  
 5.049889e-04 -1.050956e-03 0.000000e+00  
 5.290049e-04 -1.164945e-03 0.000000e+00  
 5.512420e-04 -1.283140e-03 0.000000e+00  
 5.717001e-04 -1.405215e-03 0.000000e+00  
 5.903792e-04 -1.530848e-03 0.000000e+00  
 6.072793e-04 -1.659716e-03 0.000000e+00  
 6.224004e-04 -1.791494e-03 0.000000e+00  
 6.357424e-04 -1.925860e-03 0.000000e+00  
 6.473049e-04 -2.062490e-03 0.000000e+00  
 6.570875e-04 -2.201063e-03 0.000000e+00  
 6.650891e-04 -2.341255e-03 0.000000e+00  
 6.713077e-04 -2.482750e-03 0.000000e+00  
 6.757411e-04 -2.625234e-03 0.000000e+00  
 6.784045e-04 -2.768389e-03 0.000000e+00  
 6.793212e-04 -2.911841e-03 0.000000e+00  
 -1.330343e-04 -8.788000e-05 0.000000e+00  
 -7.101036e-05 -8.976519e-05 0.000000e+00  
 -1.109244e-05 -1.010313e-04 0.000000e+00  
 4.672354e-05 -1.213570e-04 0.000000e+00  
 1.024374e-04 -1.504171e-04 0.000000e+00  
 1.560490e-04 -1.878875e-04 0.000000e+00  
 2.075582e-04 -2.334445e-04 0.000000e+00  
 2.569650e-04 -2.867645e-04 0.000000e+00  
 3.042693e-04 -3.475238e-04 0.000000e+00  
 3.494712e-04 -4.153990e-04 0.000000e+00  
 3.925707e-04 -4.900667e-04 0.000000e+00  
 4.335677e-04 -5.712033e-04 0.000000e+00  
 4.724624e-04 -6.584854e-04 0.000000e+00  
 5.092546e-04 -7.515896e-04 0.000000e+00  
 5.439444e-04 -8.501923e-04 0.000000e+00  
 5.765318e-04 -9.539702e-04 0.000000e+00  
 6.070168e-04 -1.062600e-03 0.000000e+00  
 6.353994e-04 -1.175758e-03 0.000000e+00  
 6.616796e-04 -1.293120e-03 0.000000e+00  
 6.858575e-04 -1.414364e-03 0.000000e+00  
 7.079331e-04 -1.539166e-03 0.000000e+00  
 7.279066e-04 -1.667201e-03 0.000000e+00  
 7.457781e-04 -1.798148e-03 0.000000e+00  
 7.615478e-04 -1.931682e-03 0.000000e+00  