# vtk DataFile Version 1.0 
PolyMesh 
ASCII 
 
DATASET POLYDATA 
 
POINTS 1662 float 
-0.000000e+00 -1.763310e+00 0.000000e+00  
 -0.000000e+00 -1.635355e+00 0.000000e+00  
 -0.000000e+00 -1.516794e+00 0.000000e+00  
 -0.000000e+00 -1.381685e+00 0.000000e+00  
 -0.000000e+00 -1.260076e+00 0.000000e+00  
 -0.000000e+00 -1.121818e+00 0.000000e+00  
 -0.000000e+00 -9.988129e-01 0.000000e+00  
 -0.000000e+00 -8.591569e-01 0.000000e+00  
 -0.000000e+00 -7.354247e-01 0.000000e+00  
 -0.000000e+00 -5.950914e-01 0.000000e+00  
 -0.000000e+00 -4.709603e-01 0.000000e+00  
 -0.000000e+00 -3.302765e-01 0.000000e+00  
 -0.000000e+00 -2.059237e-01 0.000000e+00  
 -0.000000e+00 -6.506139e-02 0.000000e+00  
 -0.000000e+00 5.939957e-02 0.000000e+00  
 -0.000000e+00 2.003236e-01 0.000000e+00  
 -0.000000e+00 3.247966e-01 0.000000e+00  
 -0.000000e+00 4.656654e-01 0.000000e+00  
 -0.000000e+00 5.900357e-01 0.000000e+00  
 -0.000000e+00 7.306781e-01 0.000000e+00  
 -0.000000e+00 8.547658e-01 0.000000e+00  
 -0.000000e+00 9.948599e-01 0.000000e+00  
 -0.000000e+00 1.118333e+00 0.000000e+00  
 -0.000000e+00 1.257175e+00 0.000000e+00  
 -0.000000e+00 1.379356e+00 0.000000e+00  
 -0.000000e+00 1.515244e+00 0.000000e+00  
 -0.000000e+00 1.634472e+00 0.000000e+00  
 -0.000000e+00 1.763386e+00 0.000000e+00  
 0.000000e+00 -2.000000e+00 0.000000e+00  
 -0.000000e+00 -1.880369e+00 0.000000e+00  
 -0.000000e+00 1.880489e+00 0.000000e+00  
 0.000000e+00 2.000000e+00 0.000000e+00  
 1.238260e-01 1.300999e-01 0.000000e+00  
 1.238270e-01 -1.356419e-01 0.000000e+00  
 1.238722e-01 3.959308e-01 0.000000e+00  
 1.238765e-01 -4.012600e-01 0.000000e+00  
 1.239884e-01 6.618289e-01 0.000000e+00  
 1.239998e-01 -6.667463e-01 0.000000e+00  
 1.242375e-01 9.278538e-01 0.000000e+00  
 1.242640e-01 -9.321956e-01 0.000000e+00  
 1.247602e-01 1.194355e+00 0.000000e+00  
 1.248118e-01 -1.198032e+00 0.000000e+00  
 1.252327e-01 -1.738521e+00 0.000000e+00  
 1.256047e-01 1.735880e+00 0.000000e+00  
 1.257023e-01 1.462696e+00 0.000000e+00  
 1.257483e-01 -1.465784e+00 0.000000e+00  
 1.320032e-01 -2.000000e+00 0.000000e+00  
 1.320785e-01 2.000000e+00 0.000000e+00  
 1.598125e-01 -1.600657e+00 0.000000e+00  
 1.600146e-01 1.598031e+00 0.000000e+00  
 1.608341e-01 -1.331732e+00 0.000000e+00  
 1.609170e-01 1.328451e+00 0.000000e+00  
 1.610884e-01 -2.761270e-03 0.000000e+00  
 1.611024e-01 2.630760e-01 0.000000e+00  
 1.611046e-01 -2.684925e-01 0.000000e+00  
 1.611440e-01 5.289967e-01 0.000000e+00  
 1.611479e-01 -5.341009e-01 0.000000e+00  
 1.611888e-01 -1.065269e+00 0.000000e+00  
 1.611991e-01 7.950170e-01 0.000000e+00  
 1.612008e-01 -7.996239e-01 0.000000e+00  
 1.612051e-01 1.061299e+00 0.000000e+00  
 1.650830e-01 1.867768e+00 0.000000e+00  
 1.655930e-01 -1.868950e+00 0.000000e+00  
 2.603323e-01 -1.467018e+00 0.000000e+00  
 2.604049e-01 1.464280e+00 0.000000e+00  
 2.604895e-01 1.302747e-01 0.000000e+00  
 2.604946e-01 -1.356644e-01 0.000000e+00  
 2.605312e-01 3.963235e-01 0.000000e+00  
 2.605467e-01 -4.015097e-01 0.000000e+00  
 2.606171e-01 6.625175e-01 0.000000e+00  
 2.606421e-01 -6.673085e-01 0.000000e+00  
 2.607254e-01 9.289822e-01 0.000000e+00  
 2.607497e-01 1.196075e+00 0.000000e+00  
 2.607534e-01 -9.332130e-01 0.000000e+00  
 2.607563e-01 -1.199624e+00 0.000000e+00  
 2.612984e-01 -1.733030e+00 0.000000e+00  
 2.613023e-01 1.731672e+00 0.000000e+00  
 2.714520e-01 2.000000e+00 0.000000e+00  
 2.718640e-01 -2.000000e+00 0.000000e+00  
 3.199758e-01 -1.333798e+00 0.000000e+00  
 3.200801e-01 1.330741e+00 0.000000e+00  
 3.200984e-01 1.598306e+00 0.000000e+00  
 3.200989e-01 -1.600232e+00 0.000000e+00  
 3.205375e-01 -1.066932e+00 0.000000e+00  
 3.205961e-01 1.063092e+00 0.000000e+00  
 3.207212e-01 -2.672770e-03 0.000000e+00  
 3.207309e-01 -2.686787e-01 0.000000e+00  
 3.207382e-01 2.634337e-01 0.000000e+00  
 3.207388e-01 -8.006386e-01 0.000000e+00  
 3.207547e-01 -5.346320e-01 0.000000e+00  
 3.207668e-01 7.961669e-01 0.000000e+00  
 3.207697e-01 5.296836e-01 0.000000e+00  
 3.246823e-01 1.865728e+00 0.000000e+00  
 3.251806e-01 -1.866297e+00 0.000000e+00  
 4.064540e-01 1.464887e+00 0.000000e+00  
 4.064924e-01 -1.467246e+00 0.000000e+00  
 4.065979e-01 -1.200885e+00 0.000000e+00  
 4.066103e-01 1.197519e+00 0.000000e+00  
 4.068950e-01 9.301762e-01 0.000000e+00  
 4.068979e-01 -9.342774e-01 0.000000e+00  
 4.069350e-01 1.304718e-01 0.000000e+00  
 4.069370e-01 -1.357132e-01 0.000000e+00  
 4.069550e-01 3.967863e-01 0.000000e+00  
 4.069611e-01 -4.018310e-01 0.000000e+00  
 4.069684e-01 6.633092e-01 0.000000e+00  
 4.069768e-01 -6.679690e-01 0.000000e+00  
 4.079967e-01 1.731938e+00 0.000000e+00  
 4.082376e-01 -1.733067e+00 0.000000e+00  
 4.164975e-01 2.000000e+00 0.000000e+00  
 4.169882e-01 -2.000000e+00 0.000000e+00  
 4.758787e-01 -1.334244e+00 0.000000e+00  
 4.758864e-01 1.331455e+00 0.000000e+00  
 4.761492e-01 -1.067861e+00 0.000000e+00  
 4.761938e-01 1.064184e+00 0.000000e+00  
 4.763669e-01 1.598537e+00 0.000000e+00  
 4.764339e-01 -8.013844e-01 0.000000e+00  
 4.764671e-01 7.970480e-01 0.000000e+00  
 4.765192e-01 -1.600222e+00 0.000000e+00  
 4.765399e-01 -5.350755e-01 0.000000e+00  
 4.765614e-01 5.302633e-01 0.000000e+00  
 4.765619e-01 -2.688490e-01 0.000000e+00  
 4.765666e-01 -2.600930e-03 0.000000e+00  
 4.765729e-01 2.637454e-01 0.000000e+00  
 4.803850e-01 1.865653e+00 0.000000e+00  
 4.808692e-01 -1.866186e+00 0.000000e+00  
 5.564601e-01 1.198057e+00 0.000000e+00  
 5.564880e-01 -1.201222e+00 0.000000e+00  
 5.565506e-01 1.465124e+00 0.000000e+00  
 5.566888e-01 -1.467296e+00 0.000000e+00  
 5.567104e-01 -9.348546e-01 0.000000e+00  
 5.567149e-01 9.309018e-01 0.000000e+00  
 5.568900e-01 -6.684283e-01 0.000000e+00  
 5.568971e-01 6.638989e-01 0.000000e+00  
 5.569557e-01 -4.020798e-01 0.000000e+00  
 5.569612e-01 3.971634e-01 0.000000e+00  
 5.569707e-01 -1.357510e-01 0.000000e+00  
 5.569728e-01 1.306389e-01 0.000000e+00  
 5.583150e-01 1.731961e+00 0.000000e+00  
 5.586572e-01 -1.733019e+00 0.000000e+00  
 5.646583e-01 2.000000e+00 0.000000e+00  
 5.651762e-01 -2.000000e+00 0.000000e+00  
 6.298723e-01 1.331698e+00 0.000000e+00  
 6.299514e-01 -1.334316e+00 0.000000e+00  
 6.299791e-01 -1.068154e+00 0.000000e+00  
 6.299821e-01 1.064647e+00 0.000000e+00  
 6.301947e-01 -8.017826e-01 0.000000e+00  
 6.302207e-01 7.975853e-01 0.000000e+00  
 6.303460e-01 -5.353663e-01 0.000000e+00  
 6.303701e-01 5.306812e-01 0.000000e+00  
 6.304115e-01 -2.689680e-01 0.000000e+00  
 6.304253e-01 2.639887e-01 0.000000e+00  
 6.304325e-01 -2.538950e-03 0.000000e+00  
 6.306345e-01 1.598558e+00 0.000000e+00  
 6.308829e-01 -1.600136e+00 0.000000e+00  
 6.339530e-01 1.865680e+00 0.000000e+00  
 6.344361e-01 -1.866189e+00 0.000000e+00  
 7.078775e-01 1.198272e+00 0.000000e+00  
 7.079515e-01 -1.201286e+00 0.000000e+00  
 7.080306e-01 9.312538e-01 0.000000e+00  
 7.080395e-01 -9.350596e-01 0.000000e+00  
 7.081784e-01 1.465164e+00 0.000000e+00  
 7.082034e-01 -6.686737e-01 0.000000e+00  
 7.082160e-01 6.642721e-01 0.000000e+00  
 7.083102e-01 -4.022346e-01 0.000000e+00  
 7.083235e-01 3.974372e-01 0.000000e+00  
 7.083558e-01 -1.357673e-01 0.000000e+00  
 7.083611e-01 1.307713e-01 0.000000e+00  
 7.083852e-01 -1.467221e+00 0.000000e+00  
 7.098870e-01 1.732018e+00 0.000000e+00  
 7.102792e-01 -1.733032e+00 0.000000e+00  
 7.143962e-01 2.000000e+00 0.000000e+00  
 7.149169e-01 -2.000000e+00 0.000000e+00  
 7.829816e-01 1.064840e+00 0.000000e+00  
 7.830196e-01 -1.068209e+00 0.000000e+00  
 7.830432e-01 1.331759e+00 0.000000e+00  
 7.831362e-01 -8.019253e-01 0.000000e+00  
 7.831464e-01 7.978596e-01 0.000000e+00  
 7.831864e-01 -1.334257e+00 0.000000e+00  
 7.832730e-01 -5.355104e-01 0.000000e+00  
 7.832952e-01 5.309440e-01 0.000000e+00  
 7.833580e-01 -2.690289e-01 0.000000e+00  
 7.833731e-01 2.641617e-01 0.000000e+00  
 7.833898e-01 -2.483880e-03 0.000000e+00  
 7.839103e-01 1.598581e+00 0.000000e+00  
 7.842173e-01 -1.600091e+00 0.000000e+00  
 7.865404e-01 1.865796e+00 0.000000e+00  
 7.870221e-01 -1.866289e+00 0.000000e+00  
 8.599308e-01 1.198338e+00 0.000000e+00  
 8.599691e-01 9.314115e-01 0.000000e+00  
 8.599980e-01 -9.350933e-01 0.000000e+00  
 8.600441e-01 -1.201237e+00 0.000000e+00  
 8.601047e-01 -6.687555e-01 0.000000e+00  
 8.601132e-01 6.644718e-01 0.000000e+00  
 8.602077e-01 -4.022991e-01 0.000000e+00  
 8.602233e-01 3.976106e-01 0.000000e+00  
 8.602650e-01 -1.357600e-01 0.000000e+00  
 8.602718e-01 1.308683e-01 0.000000e+00  
 8.603568e-01 1.465180e+00 0.000000e+00  
 8.606087e-01 -1.467156e+00 0.000000e+00  
 8.618710e-01 1.732121e+00 0.000000e+00  
 8.622849e-01 -1.733104e+00 0.000000e+00  
 8.650240e-01 2.000000e+00 0.000000e+00  
 8.655352e-01 -2.000000e+00 0.000000e+00  
 9.356528e-01 1.064905e+00 0.000000e+00  
 9.357249e-01 -1.068165e+00 0.000000e+00  
 9.357332e-01 7.979851e-01 0.000000e+00  
 9.357408e-01 -8.019381e-01 0.000000e+00  
 9.358338e-01 1.331773e+00 0.000000e+00  
 9.358359e-01 -5.355458e-01 0.000000e+00  
 9.358521e-01 5.310861e-01 0.000000e+00  
 9.359143e-01 -2.690385e-01 0.000000e+00  
 9.359285e-01 2.642718e-01 0.000000e+00  
 9.359479e-01 -2.434760e-03 0.000000e+00  
 9.360208e-01 -1.334184e+00 0.000000e+00  
 9.366913e-01 1.598639e+00 0.000000e+00  
 9.370299e-01 -1.600100e+00 0.000000e+00  
 9.387261e-01 1.865919e+00 0.000000e+00  
 9.392008e-01 -1.866402e+00 0.000000e+00  
 1.012172e+00 9.314672e-01 0.000000e+00  
 1.012221e+00 -9.350472e-01 0.000000e+00  
 1.012228e+00 1.198351e+00 0.000000e+00  
 1.012258e+00 6.645651e-01 0.000000e+00  
 1.012258e+00 -6.687467e-01 0.000000e+00  
 1.012334e+00 -4.022979e-01 0.000000e+00  
 1.012347e+00 3.977064e-01 0.000000e+00  
 1.012371e+00 -1.201162e+00 0.000000e+00  
 1.012386e+00 -1.357337e-01 0.000000e+00  
 1.012392e+00 1.309352e-01 0.000000e+00  
 1.012705e+00 1.465209e+00 0.000000e+00  
 1.012983e+00 -1.467126e+00 0.000000e+00  
 1.013985e+00 1.732235e+00 0.000000e+00  
 1.014403e+00 -1.733195e+00 0.000000e+00  
[...]
 POINT_DATA 1662 
 VECTORS Displacement float 
 1.340586e-04 -9.094595e-05 0.000000e+00  
 1.292421e-04 -7.822576e-05 0.000000e+00  
 1.237871e-04 -6.729442e-05 0.000000e+00  
 1.164976e-04 -5.583984e-05 0.000000e+00  
 1.090398e-04 -4.644288e-05 0.000000e+00  
 9.962715e-05 -3.681042e-05 0.000000e+00  
 9.050258e-05 -2.918060e-05 0.000000e+00  
 7.938794e-05 -2.159090e-05 0.000000e+00  
 6.895692e-05 -1.581985e-05 0.000000e+00  
 5.656597e-05 -1.035841e-05 0.000000e+00  
 4.519720e-05 -6.487756e-06 0.000000e+00  
 3.195314e-05 -3.190664e-06 0.000000e+00  
 2.001726e-05 -1.240334e-06 0.000000e+00  
 6.341584e-06 -1.238148e-07 0.000000e+00  
 -5.790011e-06 -1.032030e-07 0.000000e+00  
 -1.947603e-05 -1.173789e-06 0.000000e+00  
 -3.143104e-05 -3.085666e-06 0.000000e+00  
 -4.470501e-05 -6.342696e-06 0.000000e+00  
 -5.610983e-05 -1.018316e-05 0.000000e+00  
 -6.854697e-05 -1.561630e-05 0.000000e+00  
 -7.902662e-05 -2.137077e-05 0.000000e+00  
 -9.019854e-05 -2.895008e-05 0.000000e+00  
 -9.937791e-05 -3.658203e-05 0.000000e+00  
 -1.088522e-04 -4.622933e-05 0.000000e+00  
 -1.163625e-04 -5.565173e-05 0.000000e+00  
 -1.237098e-04 -6.715700e-05 0.000000e+00  
 -1.292050e-04 -7.814138e-05 0.000000e+00  
 -1.340611e-04 -9.095377e-05 0.000000e+00  
 1.397500e-04 -1.170000e-04 0.000000e+00  
 1.374192e-04 -1.034218e-04 0.000000e+00  
 -1.374221e-04 -1.034349e-04 0.000000e+00  
 -1.397500e-04 -1.170000e-04 0.000000e+00  
 -1.049018e-05 -1.587477e-06 0.000000e+00  
 1.093550e-05 -1.629704e-06 0.000000e+00  
 -3.153969e-05 -5.616816e-06 0.000000e+00  
 3.195209e-05 -5.738502e-06 0.000000e+00  
 -5.142547e-05 -1.372213e-05 0.000000e+00  
 5.177640e-05 -1.390869e-05 0.000000e+00  
 -6.935630e-05 -2.591235e-05 0.000000e+00  
 6.962568e-05 -2.614081e-05 0.000000e+00  
 -8.453116e-05 -4.222154e-05 0.000000e+00  
 8.471107e-05 -4.246205e-05 0.000000e+00  
 1.036623e-04 -8.790926e-05 0.000000e+00  
 -1.036485e-04 -8.790644e-05 0.000000e+00  
 -9.614327e-05 -6.278499e-05 0.000000e+00  
 9.624520e-05 -6.299321e-05 0.000000e+00  
 1.042209e-04 -1.160896e-04 0.000000e+00  
 -1.041969e-04 -1.159657e-04 0.000000e+00  
 9.319883e-05 -7.486138e-05 0.000000e+00  
 -9.309129e-05 -7.473735e-05 0.000000e+00  
 8.461976e-05 -5.234464e-05 0.000000e+00  
 -8.447409e-05 -5.212344e-05 0.000000e+00  
 2.086504e-07 -1.502090e-06 0.000000e+00  
 -1.980314e-05 -3.486622e-06 0.000000e+00  
 2.020440e-05 -3.568873e-06 0.000000e+00  
 -3.904763e-05 -9.527074e-06 0.000000e+00  
 3.940312e-05 -9.681694e-06 0.000000e+00  
 7.233649e-05 -3.404226e-05 0.000000e+00  
 -5.674431e-05 -1.962912e-05 0.000000e+00  
 5.703157e-05 -1.983694e-05 0.000000e+00  
 -7.212671e-05 -3.380877e-05 0.000000e+00  
 -9.555463e-05 -1.013917e-04 0.000000e+00  
 9.547637e-05 -1.017155e-04 0.000000e+00  
 7.002569e-05 -6.518231e-05 0.000000e+00  
 -6.995031e-05 -6.499381e-05 0.000000e+00  
 -8.135084e-06 -4.795423e-06 0.000000e+00  
 8.469256e-06 -4.835832e-06 0.000000e+00  
 -2.436213e-05 -8.762355e-06 0.000000e+00  
 2.466781e-05 -8.878773e-06 0.000000e+00  
 -3.942807e-05 -1.674319e-05 0.000000e+00  
 3.968114e-05 -1.692141e-05 0.000000e+00  
 -5.255274e-05 -2.875079e-05 0.000000e+00  
 -6.297186e-05 -4.481769e-05 0.000000e+00  
 5.273834e-05 -2.896784e-05 0.000000e+00  
 6.309088e-05 -4.504196e-05 0.000000e+00  
 7.224477e-05 -8.927118e-05 0.000000e+00  
 -7.235801e-05 -8.912790e-05 0.000000e+00  
 -6.713676e-05 -1.175861e-04 0.000000e+00  
 6.708147e-05 -1.176985e-04 0.000000e+00  
 5.663996e-05 -5.657255e-05 0.000000e+00  
 -5.656040e-05 -5.636971e-05 0.000000e+00  
 -5.931467e-05 -7.833228e-05 0.000000e+00  
 5.929059e-05 -7.850845e-05 0.000000e+00  
 4.994421e-05 -3.861809e-05 0.000000e+00  
 -4.981410e-05 -3.840212e-05 0.000000e+00  
 1.456960e-07 -6.670556e-06 0.000000e+00  
 1.454761e-05 -8.697097e-06 0.000000e+00  
 -1.426911e-05 -8.620101e-06 0.000000e+00  
 4.020607e-05 -2.466658e-05 0.000000e+00  
 2.815772e-05 -1.469588e-05 0.000000e+00  
 -4.001761e-05 -2.447271e-05 0.000000e+00  
 -2.791575e-05 -1.455124e-05 0.000000e+00  
 -5.625548e-05 -1.044135e-04 0.000000e+00  
 5.610769e-05 -1.045083e-04 0.000000e+00  
 -4.202818e-05 -7.035895e-05 0.000000e+00  
 4.201242e-05 -7.054974e-05 0.000000e+00  
 4.025221e-05 -5.084387e-05 0.000000e+00  
 -4.020021e-05 -5.063264e-05 0.000000e+00  
 -3.484228e-05 -3.486244e-05 0.000000e+00  
 3.494765e-05 -3.506723e-05 0.000000e+00  
 -5.650932e-06 -1.131985e-05 0.000000e+00  
 5.875819e-06 -1.135811e-05 0.000000e+00  
 -1.679884e-05 -1.521903e-05 0.000000e+00  
 1.700036e-05 -1.532925e-05 0.000000e+00  
 -2.678725e-05 -2.306273e-05 0.000000e+00  
 2.694611e-05 -2.323133e-05 0.000000e+00  
 -3.918930e-05 -9.407545e-05 0.000000e+00  
 3.904680e-05 -9.419940e-05 0.000000e+00  
 -2.930711e-05 -1.221333e-04 0.000000e+00  
 2.919274e-05 -1.221609e-04 0.000000e+00  
 2.971014e-05 -6.382048e-05 0.000000e+00  
 -2.971611e-05 -6.362180e-05 0.000000e+00  
 2.845107e-05 -4.625278e-05 0.000000e+00  
 -2.840226e-05 -4.604838e-05 0.000000e+00  
 -2.698022e-05 -8.513307e-05 0.000000e+00  
 2.407574e-05 -3.257838e-05 0.000000e+00  
 -2.397935e-05 -3.239538e-05 0.000000e+00  
 2.688839e-05 -8.529430e-05 0.000000e+00  
 1.738212e-05 -2.280039e-05 0.000000e+00  
 -1.724312e-05 -2.266382e-05 0.000000e+00  
 9.129958e-06 -1.691756e-05 0.000000e+00  
 8.937407e-08 -1.493118e-05 0.000000e+00  
 -8.961615e-06 -1.684485e-05 0.000000e+00  
 -1.866216e-05 -1.107413e-04 0.000000e+00  
 1.850376e-05 -1.108134e-04 0.000000e+00  
 -1.721719e-05 -5.940653e-05 0.000000e+00  
 1.719564e-05 -5.961002e-05 0.000000e+00  
 -1.387068e-05 -7.873483e-05 0.000000e+00  
 1.378835e-05 -7.891864e-05 0.000000e+00  
 1.702242e-05 -4.415863e-05 0.000000e+00  
 -1.699599e-05 -4.396420e-05 0.000000e+00  
 1.412542e-05 -3.255700e-05 0.000000e+00  
 -1.405636e-05 -3.239729e-05 0.000000e+00  
 9.284522e-06 -2.480815e-05 0.000000e+00  
 -9.181693e-06 -2.470378e-05 0.000000e+00  
 3.268427e-06 -2.091408e-05 0.000000e+00  
 -3.146980e-06 -2.087785e-05 0.000000e+00  
 -5.853876e-06 -1.020175e-04 0.000000e+00  
 5.697830e-06 -1.021350e-04 0.000000e+00  
 8.608528e-06 -1.295643e-04 0.000000e+00  
 -8.747573e-06 -1.295872e-04 0.000000e+00  
 -3.708548e-06 -7.382682e-05 0.000000e+00  
 3.632531e-06 -7.401990e-05 0.000000e+00  
 7.609980e-06 -5.681625e-05 0.000000e+00  
 -7.639130e-06 -5.661944e-05 0.000000e+00  
 8.443386e-06 -4.342761e-05 0.000000e+00  
 -8.432750e-06 -4.325323e-05 0.000000e+00  
 6.943118e-06 -3.385016e-05 0.000000e+00  
 -6.898838e-06 -3.372043e-05 0.000000e+00  
 3.883591e-06 -2.808699e-05 0.000000e+00  
 -3.816225e-06 -2.801800e-05 0.000000e+00  
 3.778779e-08 -2.614162e-05 0.000000e+00  
 4.295955e-06 -9.491409e-05 0.000000e+00  
 -4.430199e-06 -9.506860e-05 0.000000e+00  
 1.766717e-05 -1.200363e-04 0.000000e+00  
 -1.783137e-05 -1.201114e-04 0.000000e+00  
 5.550955e-06 -7.114569e-05 0.000000e+00  
 -5.638745e-06 -7.134310e-05 0.000000e+00  
 6.859412e-07 -5.602297e-05 0.000000e+00  
 -7.353273e-07 -5.620952e-05 0.000000e+00  
 1.400587e-05 -9.008833e-05 0.000000e+00  
 1.429676e-06 -4.484864e-05 0.000000e+00  
 -1.445743e-06 -4.469653e-05 0.000000e+00  
 1.646175e-06 -3.725954e-05 0.000000e+00  
 -1.636384e-06 -3.716041e-05 0.000000e+00  
 6.890575e-07 -3.344577e-05 0.000000e+00  
 -6.649968e-07 -3.341140e-05 0.000000e+00  
 -1.413787e-05 -9.026714e-05 0.000000e+00  
 2.708865e-05 -1.129325e-04 0.000000e+00  
 -2.725844e-05 -1.130530e-04 0.000000e+00  
 4.616655e-05 -1.398988e-04 0.000000e+00  
 -4.631249e-05 -1.399310e-04 0.000000e+00  
 1.260021e-05 -7.006923e-05 0.000000e+00  
 -1.269953e-05 -7.026050e-05 0.000000e+00  
 2.163059e-05 -8.692423e-05 0.000000e+00  
 -6.793842e-06 -5.715126e-05 0.000000e+00  
 6.724763e-06 -5.698350e-05 0.000000e+00  
 -2.176372e-05 -8.711351e-05 0.000000e+00  
 -3.230566e-06 -4.777541e-05 0.000000e+00  
 3.186817e-06 -4.765138e-05 0.000000e+00  
 -1.228071e-06 -4.213372e-05 0.000000e+00  
 1.201605e-06 -4.206793e-05 0.000000e+00  
 -1.015286e-08 -4.022990e-05 0.000000e+00  
 3.473282e-05 -1.075973e-04 0.000000e+00  
 -3.489891e-05 -1.077517e-04 0.000000e+00  
 5.303043e-05 -1.322144e-04 0.000000e+00  
 -5.319915e-05 -1.322985e-04 0.000000e+00  
 2.794511e-05 -8.579294e-05 0.000000e+00  
 1.808041e-05 -7.098268e-05 0.000000e+00  
 -1.820041e-05 -7.116332e-05 0.000000e+00  
 -2.809151e-05 -8.598599e-05 0.000000e+00  
 -1.105691e-05 -6.004051e-05 0.000000e+00  
 1.096062e-05 -5.989445e-05 0.000000e+00  
 -5.865150e-06 -5.261200e-05 0.000000e+00  
 5.787305e-06 -5.251728e-05 0.000000e+00  
 -1.845994e-06 -4.887955e-05 0.000000e+00  
 1.778364e-06 -4.884677e-05 0.000000e+00  
 4.140848e-05 -1.043566e-04 0.000000e+00  
 -4.158073e-05 -1.045338e-04 0.000000e+00  
 5.944619e-05 -1.267486e-04 0.000000e+00  
 -5.962901e-05 -1.268751e-04 0.000000e+00  
 8.317497e-05 -1.531037e-04 0.000000e+00  
 -8.331874e-05 -1.531471e-04 0.000000e+00  
 3.237360e-05 -8.635317e-05 0.000000e+00  
 -3.253607e-05 -8.654041e-05 0.000000e+00  
 2.153528e-05 -7.354193e-05 0.000000e+00  
 -2.167831e-05 -7.370464e-05 0.000000e+00  
 4.637717e-05 -1.028630e-04 0.000000e+00  
 -1.316855e-05 -6.452765e-05 0.000000e+00  
 1.304244e-05 -6.440818e-05 0.000000e+00  
 -6.220362e-06 -5.900684e-05 0.000000e+00  
 6.105954e-06 -5.894371e-05 0.000000e+00  
 -5.510526e-08 -5.714441e-05 0.000000e+00  
 -4.655864e-05 -1.030505e-04 0.000000e+00  
 6.443945e-05 -1.231198e-04 0.000000e+00  
 -6.463156e-05 -1.232769e-04 0.000000e+00  
 8.756799e-05 -1.472128e-04 0.000000e+00  
 -8.773950e-05 -1.473059e-04 0.000000e+00  
 3.513790e-05 -8.877880e-05 0.000000e+00  
 -3.532346e-05 -8.895503e-05 0.000000e+00  
 4.990190e-05 -1.032813e-04 0.000000e+00  
 2.312720e-05 -7.792524e-05 0.000000e+00  
 -2.329901e-05 -7.806663e-05 0.000000e+00  
 -1.322864e-05 -7.079694e-05 0.000000e+00  
 1.306808e-05 -7.070573e-05 0.000000e+00  
 -5.010082e-05 -1.034716e-04 0.000000e+00  
 -4.330001e-06 -6.714516e-05 0.000000e+00  
 4.175805e-06 -6.711368e-05 0.000000e+00  
 6.826555e-05 -1.214656e-04 0.000000e+00  
 -6.847217e-05 -1.216431e-04 0.000000e+00  
 9.115373e-05 -1.433914e-04 0.000000e+00  
 -9.134804e-05 -1.435238e-04 0.000000e+00  
 1.195353e-04 -1.691291e-04 0.000000e+00  
 -1.196723e-04 -1.691822e-04 0.000000e+00  
 5.170517e-05 -1.054211e-04 0.000000e+00  
 3.601614e-05 -9.288039e-05 0.000000e+00  
 -3.622819e-05 -9.303923e-05 0.000000e+00  
 -2.288270e-05 -8.405806e-05 0.000000e+00  
 2.267908e-05 -8.394217e-05 0.000000e+00  
 -5.192527e-05 -1.056055e-04 0.000000e+00  
 -1.109937e-05 -7.865649e-05 0.000000e+00  
 1.090200e-05 -7.859549e-05 0.000000e+00  
 -9.752729e-08 -7.683479e-05 0.000000e+00  
 7.056499e-05 -1.215874e-04 0.000000e+00  
 -7.078881e-05 -1.217743e-04 0.000000e+00  
 9.346688e-05 -1.414211e-04 0.000000e+00  
 -9.368111e-05 -1.415813e-04 0.000000e+00  
 1.213407e-04 -1.649791e-04 0.000000e+00  
 -1.215132e-04 -1.650795e-04 0.000000e+00  
 5.183834e-05 -1.093463e-04 0.000000e+00  
 3.503945e-05 -9.872471e-05 0.000000e+00  
 -3.528255e-05 -9.886251e-05 0.000000e+00  
 -5.208512e-05 -1.095192e-04 0.000000e+00  
 -2.043584e-05 -9.174952e-05 0.000000e+00  
 2.019695e-05 -9.166105e-05 0.000000e+00  
 -6.760305e-06 -8.817728e-05 0.000000e+00  
 6.524088e-06 -8.814681e-05 0.000000e+00  
 7.139653e-05 -1.235426e-04 0.000000e+00  
 -7.164332e-05 -1.237310e-04 0.000000e+00  
 9.455145e-05 -1.413436e-04 0.000000e+00  
 -9.478842e-05 -1.415219e-04 0.000000e+00  
 1.221891e-04 -1.627930e-04 0.000000e+00  
 -1.223932e-04 -1.629299e-04 0.000000e+00  
 1.551934e-04 -1.879182e-04 0.000000e+00  
 -1.553215e-04 -1.879791e-04 0.000000e+00  
 5.017471e-05 -1.149455e-04 0.000000e+00  
 3.210141e-05 -1.062007e-04 0.000000e+00  
 -3.237840e-05 -1.063138e-04 0.000000e+00  
 -5.045166e-05 -1.151013e-04 0.000000e+00  
 7.060540e-05 -1.272175e-04 0.000000e+00  
 -1.586787e-05 -1.010299e-04 0.000000e+00  
 1.559186e-05 -1.009706e-04 0.000000e+00  
 -1.377568e-07 -9.924821e-05 0.000000e+00  
 -7.087881e-05 -1.273996e-04 0.000000e+00  
 9.420944e-05 -1.430387e-04 0.000000e+00  
 -9.447140e-05 -1.432251e-04 0.000000e+00  
 1.218391e-04 -1.624425e-04 0.000000e+00  
 -1.220726e-04 -1.626050e-04 0.000000e+00  
 1.543730e-04 -1.854610e-04 0.000000e+00  
 -1.545450e-04 -1.855667e-04 0.000000e+00  
 4.669180e-05 -1.222302e-04 0.000000e+00  
 6.817404e-05 -1.326211e-04 0.000000e+00  
 -4.700248e-05 -1.223651e-04 0.000000e+00  
 -2.748383e-05 -1.154073e-04 0.000000e+00  
 2.717050e-05 -1.153210e-04 0.000000e+00  
 -9.136104e-06 -1.119136e-04 0.000000e+00  
 8.821906e-06 -1.118839e-04 0.000000e+00  
 -6.847838e-05 -1.327914e-04 0.000000e+00  
 9.241986e-05 -1.465105e-04 0.000000e+00  
 -9.271089e-05 -1.466973e-04 0.000000e+00  
 1.202578e-04 -1.639239e-04 0.000000e+00  
 -1.205222e-04 -1.641024e-04 0.000000e+00  
 1.525451e-04 -1.848904e-04 0.000000e+00  
 -1.527574e-04 -1.850301e-04 0.000000e+00  
 1.901181e-04 -2.094121e-04 0.000000e+00  
 -1.902360e-04 -2.094783e-04 0.000000e+00  
 4.131179e-05 -1.311280e-04 0.000000e+00  
 6.401455e-05 -1.396804e-04 0.000000e+00  
 -4.165849e-05 -1.312388e-04 0.000000e+00  
 -2.052745e-05 -1.260714e-04 0.000000e+00  
 2.017660e-05 -1.260134e-04 0.000000e+00  
 -1.760416e-07 -1.243292e-04 0.000000e+00  
 -6.435287e-05 -1.398336e-04 0.000000e+00  
 8.907919e-05 -1.516835e-04 0.000000e+00  
 -8.940245e-05 -1.518635e-04 0.000000e+00  
 1.173180e-04 -1.671570e-04 0.000000e+00  
 -1.176150e-04 -1.673424e-04 0.000000e+00  
 1.495678e-04 -1.861256e-04 0.000000e+00  
 -1.498185e-04 -1.862889e-04 0.000000e+00  
 1.866738e-04 -2.086043e-04 0.000000e+00  
 -1.868442e-04 -2.087129e-04 0.000000e+00  
 5.808251e-05 -1.483800e-04 0.000000e+00  
 3.398769e-05 -1.416247e-04 0.000000e+00  
 -3.437196e-05 -1.417092e-04 0.000000e+00  
 -1.145733e-05 -1.382933e-04 0.000000e+00  
 1.106881e-05 -1.382643e-04 0.000000e+00  
 -5.845745e-05 -1.485125e-04 0.000000e+00  
 8.414244e-05 -1.585404e-04 0.000000e+00  
 -8.450119e-05 -1.587081e-04 0.000000e+00  
 1.129690e-04 -1.721211e-04 0.000000e+00  
 -1.133013e-04 -1.723059e-04 0.000000e+00  
 1.453826e-04 -1.891428e-04 0.000000e+00  
 -1.456721e-04 -1.893205e-04 0.000000e+00  
 1.822198e-04 -2.096232e-04 0.000000e+00  
 -1.824390e-04 -2.097637e-04 0.000000e+00  
 2.242905e-04 -2.335506e-04 0.000000e+00  
 -2.243976e-04 -2.336199e-04 0.000000e+00  
 2.465692e-05 -1.536667e-04 0.000000e+00  
 5.031163e-05 -1.586661e-04 0.000000e+00  
 -2.125522e-07 -1.520206e-04 0.000000e+00  
 -2.507913e-05 -1.537235e-04 0.000000e+00  
 -5.072474e-05 -1.587748e-04 0.000000e+00  
 7.753760e-05 -1.670262e-04 0.000000e+00  
 -7.793418e-05 -1.671769e-04 0.000000e+00  
 1.071292e-04 -1.787593e-04 0.000000e+00  
 -1.074994e-04 -1.789368e-04 0.000000e+00  
 1.398949e-04 -1.938822e-04 0.000000e+00  
 -1.402243e-04 -1.940656e-04 0.000000e+00  
 1.766591e-04 -2.124121e-04 0.000000e+00  
 -1.769251e-04 -2.125745e-04 0.000000e+00  
 2.182453e-04 -2.343526e-04 0.000000e+00  
 -2.184132e-04 -2.344620e-04 0.000000e+00  
 1.326470e-05 -1.672279e-04 0.000000e+00  
 -1.372415e-05 -1.672563e-04 0.000000e+00  
 4.064846e-05 -1.705116e-04 0.000000e+00  
 -4.110039e-05 -1.705944e-04 0.000000e+00  
 6.921131e-05 -1.771131e-04 0.000000e+00  
 -6.964745e-05 -1.772432e-04 0.000000e+00  
 9.974300e-05 -1.870421e-04 0.000000e+00  
 -1.001533e-04 -1.872071e-04 0.000000e+00  
 1.330435e-04 -2.003122e-04 0.000000e+00  
 -1.334146e-04 -2.004942e-04 0.000000e+00  
 1.699263e-04 -2.169389e-04 0.000000e+00  
 -1.702389e-04 -2.171142e-04 0.000000e+00  
 2.112129e-04 -2.369318e-04 0.000000e+00  
 -2.114378e-04 -2.370712e-04 0.000000e+00  
 2.576990e-04 -2.602732e-04 0.000000e+00  
 -2.577948e-04 -2.603433e-04 0.000000e+00  
 -2.474040e-07 -1.822637e-04 0.000000e+00  
 2.903329e-05 -1.838718e-04 0.000000e+00  
 -2.952360e-05 -1.839275e-04 0.000000e+00  
 5.910185e-05 -1.887559e-04 0.000000e+00  
 -5.957829e-05 -1.888624e-04 0.000000e+00  
 9.074508e-05 -1.969232e-04 0.000000e+00  
 -9.119708e-05 -1.970711e-04 0.000000e+00  
 1.247570e-04 -2.083849e-04 0.000000e+00  
 -1.251716e-04 -2.085591e-04 0.000000e+00  
 1.619424e-04 -2.231545e-04 0.000000e+00  
 -1.623021e-04 -2.233346e-04 0.000000e+00  
 2.031161e-04 -2.412434e-04 0.000000e+00  
 -2.033961e-04 -2.414030e-04 0.000000e+00  
 2.490878e-04 -2.626485e-04 0.000000e+00  
 -2.492525e-04 -2.627565e-04 0.000000e+00  
 1.540961e-05 -1.987146e-04 0.000000e+00  
 -1.593677e-05 -1.987424e-04 0.000000e+00  
 4.715298e-05 -2.019216e-04 0.000000e+00  
 -4.766949e-05 -2.020027e-04 0.000000e+00  
 8.007841e-05 -2.083689e-04 0.000000e+00  
 -8.057290e-05 -2.084963e-04 0.000000e+00  
 1.149759e-04 -2.180654e-04 0.000000e+00  
 -1.154352e-04 -2.182269e-04 0.000000e+00  
 1.526437e-04 -2.310227e-04 0.000000e+00  
 -1.530514e-04 -2.312007e-04 0.000000e+00  
 1.938895e-04 -2.472521e-04 0.000000e+00  
 -1.942236e-04 -2.474234e-04 0.000000e+00  
 2.395242e-04 -2.667576e-04 0.000000e+00  
 -2.397541e-04 -2.668935e-04 0.000000e+00  
 2.903361e-04 -2.895196e-04 0.000000e+00  
 -2.904204e-04 -2.895881e-04 0.000000e+00  
 -2.806830e-07 -2.149994e-04 0.000000e+00  
 3.330601e-05 -2.165695e-04 0.000000e+00  
 -3.386134e-05 -2.166239e-04 0.000000e+00  
 6.768304e-05 -2.213379e-04 0.000000e+00  
 -6.821989e-05 -2.214421e-04 0.000000e+00  
 1.036378e-04 -2.293116e-04 0.000000e+00  
 -1.041425e-04 -2.294560e-04 0.000000e+00  
 1.419637e-04 -2.405002e-04 0.000000e+00  
 -1.424202e-04 -2.406701e-04 0.000000e+00  
 1.834621e-04 -2.549143e-04 0.000000e+00  
 -1.838502e-04 -2.550895e-04 0.000000e+00  
 2.289408e-04 -2.725611e-04 0.000000e+00  
 -2.292334e-04 -2.727158e-04 0.000000e+00  
 2.792003e-04 -2.934336e-04 0.000000e+00  
 -2.793613e-04 -2.935378e-04 0.000000e+00  
 1.750356e-05 -2.326646e-04 0.000000e+00  
 -1.809538e-05 -2.326917e-04 0.000000e+00  
 5.350145e-05 -2.357946e-04 0.000000e+00  
 -5.407960e-05 -2.358737e-04 0.000000e+00  
 9.068410e-05 -2.420871e-04 0.000000e+00  
 -9.123417e-05 -2.422111e-04 0.000000e+00  
 1.298416e-04 -2.515498e-04 0.000000e+00  
 -1.303474e-04 -2.517068e-04 0.000000e+00  
 1.717703e-04 -2.641924e-04 0.000000e+00  
 -1.722125e-04 -2.643649e-04 0.000000e+00  
 2.172733e-04 -2.800229e-04 0.000000e+00  
 -2.176274e-04 -2.801882e-04 0.000000e+00  
 2.671541e-04 -2.990415e-04 0.000000e+00  
 -2.673879e-04 -2.991718e-04 0.000000e+00  
 3.221971e-04 -3.212295e-04 0.000000e+00  
 -3.222696e-04 -3.212940e-04 0.000000e+00  
 -3.124580e-07 -2.501682e-04 0.000000e+00  
 3.747524e-05 -2.517001e-04 0.000000e+00  
 -3.809264e-05 -2.517530e-04 0.000000e+00  
 7.605554e-05 -2.563524e-04 0.000000e+00  
 -7.665000e-05 -2.564536e-04 0.000000e+00  
 1.162162e-04 -2.641314e-04 0.000000e+00  
 -1.167711e-04 -2.642714e-04 0.000000e+00  
 1.587499e-04 -2.750454e-04 0.000000e+00  
 -1.592462e-04 -2.752096e-04 0.000000e+00  
 2.044553e-04 -2.891025e-04 0.000000e+00  
 -2.048700e-04 -2.892709e-04 0.000000e+00  
 2.541344e-04 -3.063065e-04 0.000000e+00  
 -2.544385e-04 -3.064542e-04 0.000000e+00  
 3.085821e-04 -3.266491e-04 0.000000e+00  
 -3.087388e-04 -3.267471e-04 0.000000e+00  
 1.954656e-05 -2.690180e-04 0.000000e+00  
 -2.020011e-05 -2.690443e-04 0.000000e+00  
 5.969399e-05 -2.720708e-04 0.000000e+00  
 -6.033095e-05 -2.721475e-04 0.000000e+00  
 1.010286e-04 -2.782077e-04 0.000000e+00  
 -1.016316e-04 -2.783276e-04 0.000000e+00  
 1.443402e-04 -2.874354e-04 0.000000e+00  
 -1.448901e-04 -2.875866e-04 0.000000e+00  
 1.904237e-04 -2.997617e-04 0.000000e+00  
 -1.908984e-04 -2.999270e-04 0.000000e+00  
 2.400785e-04 -3.151922e-04 0.000000e+00  
 -2.404510e-04 -3.153494e-04 0.000000e+00  
 2.941026e-04 -3.337249e-04 0.000000e+00  
 -2.943395e-04 -3.338471e-04 0.000000e+00  
 3.532787e-04 -3.553429e-04 0.000000e+00  
 -3.533392e-04 -3.554009e-04 0.000000e+00  
 -3.427972e-07 -2.877103e-04 0.000000e+00  
 4.154104e-05 -2.892041e-04 0.000000e+00  
 -4.221768e-05 -2.892551e-04 0.000000e+00  
 8.421952e-05 -2.937398e-04 0.000000e+00  
 -8.486889e-05 -2.938373e-04 0.000000e+00  
 1.284806e-04 -3.013232e-04 0.000000e+00  
 -1.290832e-04 -3.014576e-04 0.000000e+00  