# vtk DataFile Version 1.0 
PolyMesh 
ASCII 
 
DATASET POLYDATA 
 
POINTS 6670 float 
0.000000e+00 -2.000000e+00 0.000000e+00  
 7.017544e-02 -2.000000e+00 0.000000e+00  
 1.403509e-01 -2.000000e+00 0.000000e+00  
 2.105263e-01 -2.000000e+00 0.000000e+00  
 2.807018e-01 -2.000000e+00 0.000000e+00  
 3.508772e-01 -2.000000e+00 0.000000e+00  
 4.210526e-01 -2.000000e+00 0.000000e+00  
 4.912281e-01 -2.000000e+00 0.000000e+00  
 5.614035e-01 -2.000000e+00 0.000000e+00  
 6.315789e-01 -2.000000e+00 0.000000e+00  
 7.017544e-01 -2.000000e+00 0.000000e+00  
 7.719298e-01 -2.000000e+00 0.000000e+00  
 8.421053e-01 -2.000000e+00 0.000000e+00  
 9.122807e-01 -2.000000e+00 0.000000e+00  
 9.824561e-01 -2.000000e+00 0.000000e+00  
 1.052632e+00 -2.000000e+00 0.000000e+00  
 1.122807e+00 -2.000000e+00 0.000000e+00  
 1.192982e+00 -2.000000e+00 0.000000e+00  
 1.263158e+00 -2.000000e+00 0.000000e+00  
 1.333333e+00 -2.000000e+00 0.000000e+00  
 1.403509e+00 -2.000000e+00 0.000000e+00  
 1.473684e+00 -2.000000e+00 0.000000e+00  
 1.543860e+00 -2.000000e+00 0.000000e+00  
 1.614035e+00 -2.000000e+00 0.000000e+00  
 1.684211e+00 -2.000000e+00 0.000000e+00  
 1.754386e+00 -2.000000e+00 0.000000e+00  
 1.824561e+00 -2.000000e+00 0.000000e+00  
 1.894737e+00 -2.000000e+00 0.000000e+00  
 1.964912e+00 -2.000000e+00 0.000000e+00  
 2.035088e+00 -2.000000e+00 0.000000e+00  
 2.105263e+00 -2.000000e+00 0.000000e+00  
 2.175439e+00 -2.000000e+00 0.000000e+00  
 2.245614e+00 -2.000000e+00 0.000000e+00  
 2.315789e+00 -2.000000e+00 0.000000e+00  
 2.385965e+00 -2.000000e+00 0.000000e+00  
 2.456140e+00 -2.000000e+00 0.000000e+00  
 2.526316e+00 -2.000000e+00 0.000000e+00  
 2.596491e+00 -2.000000e+00 0.000000e+00  
 2.666667e+00 -2.000000e+00 0.000000e+00  
 2.736842e+00 -2.000000e+00 0.000000e+00  
 2.807018e+00 -2.000000e+00 0.000000e+00  
 2.877193e+00 -2.000000e+00 0.000000e+00  
 2.947368e+00 -2.000000e+00 0.000000e+00  
 3.017544e+00 -2.000000e+00 0.000000e+00  
 3.087719e+00 -2.000000e+00 0.000000e+00  
 3.157895e+00 -2.000000e+00 0.000000e+00  
 3.228070e+00 -2.000000e+00 0.000000e+00  
 3.298246e+00 -2.000000e+00 0.000000e+00  
 3.368421e+00 -2.000000e+00 0.000000e+00  
 3.438596e+00 -2.000000e+00 0.000000e+00  
 3.508772e+00 -2.000000e+00 0.000000e+00  
 3.578947e+00 -2.000000e+00 0.000000e+00  
 3.649123e+00 -2.000000e+00 0.000000e+00  
 3.719298e+00 -2.000000e+00 0.000000e+00  
 3.789474e+00 -2.000000e+00 0.000000e+00  
 3.859649e+00 -2.000000e+00 0.000000e+00  
 3.929825e+00 -2.000000e+00 0.000000e+00  
 4.000000e+00 -2.000000e+00 0.000000e+00  
 4.070175e+00 -2.000000e+00 0.000000e+00  
 4.140351e+00 -2.000000e+00 0.000000e+00  
 4.210526e+00 -2.000000e+00 0.000000e+00  
 4.280702e+00 -2.000000e+00 0.000000e+00  
 4.350877e+00 -2.000000e+00 0.000000e+00  
 4.421053e+00 -2.000000e+00 0.000000e+00  
 4.491228e+00 -2.000000e+00 0.000000e+00  
 4.561404e+00 -2.000000e+00 0.000000e+00  
 4.631579e+00 -2.000000e+00 0.000000e+00  
 4.701754e+00 -2.000000e+00 0.000000e+00  
 4.771930e+00 -2.000000e+00 0.000000e+00  
 4.842105e+00 -2.000000e+00 0.000000e+00  
 4.912281e+00 -2.000000e+00 0.000000e+00  
 4.982456e+00 -2.000000e+00 0.000000e+00  
 5.052632e+00 -2.000000e+00 0.000000e+00  
 5.122807e+00 -2.000000e+00 0.000000e+00  
 5.192982e+00 -2.000000e+00 0.000000e+00  
 5.263158e+00 -2.000000e+00 0.000000e+00  
 5.333333e+00 -2.000000e+00 0.000000e+00  
 5.403509e+00 -2.000000e+00 0.000000e+00  
 5.473684e+00 -2.000000e+00 0.000000e+00  
 5.543860e+00 -2.000000e+00 0.000000e+00  
 5.614035e+00 -2.000000e+00 0.000000e+00  
 5.684211e+00 -2.000000e+00 0.000000e+00  
 5.754386e+00 -2.000000e+00 0.000000e+00  
 5.824561e+00 -2.000000e+00 0.000000e+00  
 5.894737e+00 -2.000000e+00 0.000000e+00  
 5.964912e+00 -2.000000e+00 0.000000e+00  
 6.035088e+00 -2.000000e+00 0.000000e+00  
 6.105263e+00 -2.000000e+00 0.000000e+00  
 6.175439e+00 -2.000000e+00 0.000000e+00  
 6.245614e+00 -2.000000e+00 0.000000e+00  
 6.315789e+00 -2.000000e+00 0.000000e+00  
 6.385965e+00 -2.000000e+00 0.000000e+00  
 6.456140e+00 -2.000000e+00 0.000000e+00  
 6.526316e+00 -2.000000e+00 0.000000e+00  
 6.596491e+00 -2.000000e+00 0.000000e+00  
 6.666667e+00 -2.000000e+00 0.000000e+00  
 6.736842e+00 -2.000000e+00 0.000000e+00  
 6.807018e+00 -2.000000e+00 0.000000e+00  
 6.877193e+00 -2.000000e+00 0.000000e+00  
 6.947368e+00 -2.000000e+00 0.000000e+00  
 7.017544e+00 -2.000000e+00 0.000000e+00  
 7.087719e+00 -2.000000e+00 0.000000e+00  
 7.157895e+00 -2.000000e+00 0.000000e+00  
 7.228070e+00 -2.000000e+00 0.000000e+00  
 7.298246e+00 -2.000000e+00 0.000000e+00  
 7.368421e+00 -2.000000e+00 0.000000e+00  
 7.438596e+00 -2.000000e+00 0.000000e+00  
 7.508772e+00 -2.000000e+00 0.000000e+00  
 7.578947e+00 -2.000000e+00 0.000000e+00  
 7.649123e+00 -2.000000e+00 0.000000e+00  
 7.719298e+00 -2.000000e+00 0.000000e+00  
 7.789474e+00 -2.000000e+00 0.000000e+00  
 7.859649e+00 -2.000000e+00 0.000000e+00  
 7.929825e+00 -2.000000e+00 0.000000e+00  
 8.000000e+00 -2.000000e+00 0.000000e+00  
 0.000000e+00 -1.929825e+00 0.000000e+00  
 7.017544e-02 -1.929825e+00 0.000000e+00  
 1.403509e-01 -1.929825e+00 0.000000e+00  
 2.105263e-01 -1.929825e+00 0.000000e+00  
 2.807018e-01 -1.929825e+00 0.000000e+00  
 3.508772e-01 -1.929825e+00 0.000000e+00  
 4.210526e-01 -1.929825e+00 0.000000e+00  
 4.912281e-01 -1.929825e+00 0.000000e+00  
 5.614035e-01 -1.929825e+00 0.000000e+00  
 6.315789e-01 -1.929825e+00 0.000000e+00  
 7.017544e-01 -1.929825e+00 0.000000e+00  
 7.719298e-01 -1.929825e+00 0.000000e+00  
 8.421053e-01 -1.929825e+00 0.000000e+00  
 9.122807e-01 -1.929825e+00 0.000000e+00  
 9.824561e-01 -1.929825e+00 0.000000e+00  
 1.052632e+00 -1.929825e+00 0.000000e+00  
 1.122807e+00 -1.929825e+00 0.000000e+00  
 1.192982e+00 -1.929825e+00 0.000000e+00  
 1.263158e+00 -1.929825e+00 0.000000e+00  
 1.333333e+00 -1.929825e+00 0.000000e+00  
 1.403509e+00 -1.929825e+00 0.000000e+00  
 1.473684e+00 -1.929825e+00 0.000000e+00  
 1.543860e+00 -1.929825e+00 0.000000e+00  
 1.614035e+00 -1.929825e+00 0.000000e+00  
 1.684211e+00 -1.929825e+00 0.000000e+00  
 1.754386e+00 -1.929825e+00 0.000000e+00  
 1.824561e+00 -1.929825e+00 0.000000e+00  
 1.894737e+00 -1.929825e+00 0.000000e+00  
 1.964912e+00 -1.929825e+00 0.000000e+00  
 2.035088e+00 -1.929825e+00 0.000000e+00  
 2.105263e+00 -1.929825e+00 0.000000e+00  
 2.175439e+00 -1.929825e+00 0.000000e+00  
 2.245614e+00 -1.929825e+00 0.000000e+00  
 2.315789e+00 -1.929825e+00 0.000000e+00  
 2.385965e+00 -1.929825e+00 0.000000e+00  
 2.456140e+00 -1.929825e+00 0.000000e+00  
 2.526316e+00 -1.929825e+00 0.000000e+00  
 2.596491e+00 -1.929825e+00 0.000000e+00  
 2.666667e+00 -1.929825e+00 0.000000e+00  
 2.736842e+00 -1.929825e+00 0.000000e+00  
 2.807018e+00 -1.929825e+00 0.000000e+00  
 2.877193e+00 -1.929825e+00 0.000000e+00  
 2.947368e+00 -1.929825e+00 0.000000e+00  
 3.017544e+00 -1.929825e+00 0.000000e+00  
 3.087719e+00 -1.929825e+00 0.000000e+00  
 3.157895e+00 -1.929825e+00 0.000000e+00  
 3.228070e+00 -1.929825e+00 0.000000e+00  
 3.298246e+00 -1.929825e+00 0.000000e+00  
 3.368421e+00 -1.929825e+00 0.000000e+00  
 3.438596e+00 -1.929825e+00 0.000000e+00  
 3.508772e+00 -1.929825e+00 0.000000e+00  
 3.578947e+00 -1.929825e+00 0.000000e+00  
 3.649123e+00 -1.929825e+00 0.000000e+00  
 3.719298e+00 -1.929825e+00 0.000000e+00  
 3.789474e+00 -1.929825e+00 0.000000e+00  
 3.859649e+00 -1.929825e+00 0.000000e+00  
 3.929825e+00 -1.929825e+00 0.000000e+00  
 4.000000e+00 -1.929825e+00 0.000000e+00  
 4.070175e+00 -1.929825e+00 0.000000e+00  
 4.140351e+00 -1.929825e+00 0.000000e+00  
 4.210526e+00 -1.929825e+00 0.000000e+00  
 4.280702e+00 -1.929825e+00 0.000000e+00  
 4.350877e+00 -1.929825e+00 0.000000e+00  
 4.421053e+00 -1.929825e+00 0.000000e+00  
 4.491228e+00 -1.929825e+00 0.000000e+00  
 4.561404e+00 -1.929825e+00 0.000000e+00  
 4.631579e+00 -1.929825e+00 0.000000e+00  
 4.701754e+00 -1.929825e+00 0.000000e+00  
 4.771930e+00 -1.929825e+00 0.000000e+00  
 4.842105e+00 -1.929825e+00 0.000000e+00  
 4.912281e+00 -1.929825e+00 0.000000e+00  
 4.982456e+00 -1.929825e+00 0.000000e+00  
 5.052632e+00 -1.929825e+00 0.000000e+00  
 5.122807e+00 -1.929825e+00 0.000000e+00  
 5.192982e+00 -1.929825e+00 0.000000e+00  
 5.263158e+00 -1.929825e+00 0.000000e+00  
 5.333333e+00 -1.929825e+00 0.000000e+00  
 5.403509e+00 -1.929825e+00 0.000000e+00  
 5.473684e+00 -1.929825e+00 0.000000e+00  
 5.543860e+00 -1.929825e+00 0.000000e+00  
 5.614035e+00 -1.929825e+00 0.000000e+00  
 5.684211e+00 -1.929825e+00 0.000000e+00  
 5.754386e+00 -1.929825e+00 0.000000e+00  
 5.824561e+00 -1.929825e+00 0.000000e+00  
 5.894737e+00 -1.929825e+00 0.000000e+00  
 5.964912e+00 -1.929825e+00 0.000000e+00  
 6.035088e+00 -1.929825e+00 0.000000e+00  
 6.105263e+00 -1.929825e+00 0.000000e+00  
 6.175439e+00 -1.929825e+00 0.000000e+00  
 6.245614e+00 -1.929825e+00 0.000000e+00  
 6.315789e+00 -1.929825e+00 0.000000e+00  
 6.385965e+00 -1.929825e+00 0.000000e+00  
 6.456140e+00 -1.929825e+00 0.000000e+00  
 6.526316e+00 -1.929825e+00 0.000000e+00  
 6.596491e+00 -1.929825e+00 0.000000e+00  
 6.666667e+00 -1.929825e+00 0.000000e+00  
 6.736842e+00 -1.929825e+00 0.000000e+00  
 6.807018e+00 -1.929825e+00 0.000000e+00  
 6.877193e+00 -1.929825e+00 0.000000e+00  
 6.947368e+00 -1.929825e+00 0.000000e+00  
 7.017544e+00 -1.929825e+00 0.000000e+00  
 7.087719e+00 -1.929825e+00 0.000000e+00  
 7.157895e+00 -1.929825e+00 0.000000e+00  
 7.228070e+00 -1.929825e+00 0.000000e+00  
 7.298246e+00 -1.929825e+00 0.000000e+00  
 7.368421e+00 -1.929825e+00 0.000000e+00  
 7.438596e+00 -1.929825e+00 0.000000e+00  
 7.508772e+00 -1.929825e+00 0.000000e+00  
 7.578947e+00 -1.929825e+00 0.000000e+00  
 7.649123e+00 -1.929825e+00 0.000000e+00  
 7.719298e+00 -1.929825e+00 0.000000e+00  
 7.789474e+00 -1.929825e+00 0.000000e+00  
 7.859649e+00 -1.929825e+00 0.000000e+00  
 7.929825e+00 -1.929825e+00 0.000000e+00  
 8.000000e+00 -1.929825e+00 0.000000e+00  
[...]
 POINT_DATA 6670 
 VECTORS Displacement float 
 1.397500e-04 -1.170000e-04 0.000000e+00  
 1.206769e-04 -1.163087e-04 0.000000e+00  
 1.017716e-04 -1.162839e-04 0.000000e+00  
 8.303428e-05 -1.169196e-04 0.000000e+00  
 6.446501e-05 -1.182099e-04 0.000000e+00  
 4.606377e-05 -1.201488e-04 0.000000e+00  
 2.783057e-05 -1.227304e-04 0.000000e+00  
 9.765419e-06 -1.259489e-04 0.000000e+00  
 -8.131689e-06 -1.297983e-04 0.000000e+00  
 -2.586075e-05 -1.342727e-04 0.000000e+00  
 -4.342176e-05 -1.393663e-04 0.000000e+00  
 -6.081473e-05 -1.450731e-04 0.000000e+00  
 -7.803964e-05 -1.513872e-04 0.000000e+00  
 -9.509651e-05 -1.583028e-04 0.000000e+00  
 -1.119853e-04 -1.658139e-04 0.000000e+00  
 -1.287061e-04 -1.739147e-04 0.000000e+00  
 -1.452588e-04 -1.825992e-04 0.000000e+00  
 -1.616435e-04 -1.918615e-04 0.000000e+00  
 -1.778601e-04 -2.016959e-04 0.000000e+00  
 -1.939087e-04 -2.120962e-04 0.000000e+00  
 -2.097892e-04 -2.230568e-04 0.000000e+00  
 -2.255017e-04 -2.345716e-04 0.000000e+00  
 -2.410461e-04 -2.466347e-04 0.000000e+00  
 -2.564225e-04 -2.592404e-04 0.000000e+00  
 -2.716309e-04 -2.723826e-04 0.000000e+00  
 -2.866711e-04 -2.860555e-04 0.000000e+00  
 -3.015434e-04 -3.002532e-04 0.000000e+00  
 -3.162476e-04 -3.149697e-04 0.000000e+00  
 -3.307837e-04 -3.301993e-04 0.000000e+00  
 -3.451518e-04 -3.459359e-04 0.000000e+00  
 -3.593518e-04 -3.621737e-04 0.000000e+00  
 -3.733838e-04 -3.789069e-04 0.000000e+00  
 -3.872478e-04 -3.961294e-04 0.000000e+00  
 -4.009437e-04 -4.138354e-04 0.000000e+00  
 -4.144715e-04 -4.320191e-04 0.000000e+00  
 -4.278313e-04 -4.506745e-04 0.000000e+00  
 -4.410231e-04 -4.697956e-04 0.000000e+00  
 -4.540468e-04 -4.893767e-04 0.000000e+00  
 -4.669025e-04 -5.094119e-04 0.000000e+00  
 -4.795901e-04 -5.298951e-04 0.000000e+00  
 -4.921096e-04 -5.508206e-04 0.000000e+00  
 -5.044612e-04 -5.721824e-04 0.000000e+00  
 -5.166446e-04 -5.939747e-04 0.000000e+00  
 -5.286600e-04 -6.161915e-04 0.000000e+00  
 -5.405074e-04 -6.388269e-04 0.000000e+00  
 -5.521867e-04 -6.618751e-04 0.000000e+00  
 -5.636980e-04 -6.853302e-04 0.000000e+00  
 -5.750412e-04 -7.091862e-04 0.000000e+00  
 -5.862164e-04 -7.334372e-04 0.000000e+00  
 -5.972236e-04 -7.580775e-04 0.000000e+00  
 -6.080626e-04 -7.831010e-04 0.000000e+00  
 -6.187337e-04 -8.085018e-04 0.000000e+00  
 -6.292367e-04 -8.342742e-04 0.000000e+00  
 -6.395716e-04 -8.604121e-04 0.000000e+00  
 -6.497385e-04 -8.869097e-04 0.000000e+00  
 -6.597373e-04 -9.137611e-04 0.000000e+00  
 -6.695681e-04 -9.409603e-04 0.000000e+00  
 -6.792309e-04 -9.685016e-04 0.000000e+00  
 -6.887256e-04 -9.963789e-04 0.000000e+00  
 -6.980523e-04 -1.024586e-03 0.000000e+00  
 -7.072109e-04 -1.053118e-03 0.000000e+00  
 -7.162014e-04 -1.081969e-03 0.000000e+00  
 -7.250239e-04 -1.111131e-03 0.000000e+00  
 -7.336784e-04 -1.140601e-03 0.000000e+00  
 -7.421648e-04 -1.170371e-03 0.000000e+00  
 -7.504832e-04 -1.200436e-03 0.000000e+00  
 -7.586335e-04 -1.230790e-03 0.000000e+00  
 -7.666158e-04 -1.261427e-03 0.000000e+00  
 -7.744300e-04 -1.292341e-03 0.000000e+00  
 -7.820762e-04 -1.323526e-03 0.000000e+00  
 -7.895543e-04 -1.354976e-03 0.000000e+00  
 -7.968644e-04 -1.386686e-03 0.000000e+00  
 -8.040064e-04 -1.418650e-03 0.000000e+00  
 -8.109804e-04 -1.450861e-03 0.000000e+00  
 -8.177864e-04 -1.483314e-03 0.000000e+00  
 -8.244243e-04 -1.516003e-03 0.000000e+00  
 -8.308941e-04 -1.548922e-03 0.000000e+00  
 -8.371959e-04 -1.582065e-03 0.000000e+00  
 -8.433297e-04 -1.615426e-03 0.000000e+00  
 -8.492954e-04 -1.648999e-03 0.000000e+00  
 -8.550930e-04 -1.682779e-03 0.000000e+00  
 -8.607227e-04 -1.716759e-03 0.000000e+00  
 -8.661843e-04 -1.750933e-03 0.000000e+00  
 -8.714778e-04 -1.785297e-03 0.000000e+00  
 -8.766033e-04 -1.819843e-03 0.000000e+00  
 -8.815607e-04 -1.854566e-03 0.000000e+00  
 -8.863501e-04 -1.889460e-03 0.000000e+00  
 -8.909715e-04 -1.924519e-03 0.000000e+00  
 -8.954248e-04 -1.959738e-03 0.000000e+00  
 -8.997101e-04 -1.995109e-03 0.000000e+00  
 -9.038274e-04 -2.030629e-03 0.000000e+00  
 -9.077766e-04 -2.066289e-03 0.000000e+00  
 -9.115578e-04 -2.102085e-03 0.000000e+00  
 -9.151710e-04 -2.138011e-03 0.000000e+00  
 -9.186161e-04 -2.174061e-03 0.000000e+00  
 -9.218932e-04 -2.210229e-03 0.000000e+00  
 -9.250023e-04 -2.246509e-03 0.000000e+00  
 -9.279434e-04 -2.282895e-03 0.000000e+00  
 -9.307164e-04 -2.319381e-03 0.000000e+00  
 -9.333215e-04 -2.355961e-03 0.000000e+00  
 -9.357586e-04 -2.392631e-03 0.000000e+00  
 -9.380276e-04 -2.429382e-03 0.000000e+00  
 -9.401287e-04 -2.466211e-03 0.000000e+00  
 -9.420619e-04 -2.503110e-03 0.000000e+00  
 -9.438270e-04 -2.540074e-03 0.000000e+00  
 -9.454243e-04 -2.577097e-03 0.000000e+00  
 -9.468537e-04 -2.614174e-03 0.000000e+00  
 -9.481152e-04 -2.651298e-03 0.000000e+00  
 -9.492089e-04 -2.688463e-03 0.000000e+00  
 -9.501350e-04 -2.725664e-03 0.000000e+00  
 -9.508935e-04 -2.762896e-03 0.000000e+00  
 -9.514847e-04 -2.800152e-03 0.000000e+00  
 -9.519093e-04 -2.837428e-03 0.000000e+00  
 -9.521677e-04 -2.874720e-03 0.000000e+00  
 -9.522603e-04 -2.912046e-03 0.000000e+00  
 1.385220e-04 -1.089335e-04 0.000000e+00  
 1.201178e-04 -1.083132e-04 0.000000e+00  
 1.018759e-04 -1.083591e-04 0.000000e+00  
 8.379609e-05 -1.090656e-04 0.000000e+00  
 6.587840e-05 -1.104266e-04 0.000000e+00  
 4.812284e-05 -1.124363e-04 0.000000e+00  
 3.052942e-05 -1.150887e-04 0.000000e+00  
 1.309814e-05 -1.183779e-04 0.000000e+00  
 -4.170987e-06 -1.222980e-04 0.000000e+00  
 -2.127797e-05 -1.268432e-04 0.000000e+00  
 -3.822280e-05 -1.320076e-04 0.000000e+00  
 -5.500547e-05 -1.377851e-04 0.000000e+00  
 -7.162600e-05 -1.441700e-04 0.000000e+00  
 -8.808438e-05 -1.511563e-04 0.000000e+00  
 -1.043806e-04 -1.587382e-04 0.000000e+00  
 -1.205147e-04 -1.669097e-04 0.000000e+00  
 -1.364866e-04 -1.756650e-04 0.000000e+00  
 -1.522964e-04 -1.849981e-04 0.000000e+00  
 -1.679440e-04 -1.949032e-04 0.000000e+00  
 -1.834295e-04 -2.053743e-04 0.000000e+00  
 -1.987528e-04 -2.164056e-04 0.000000e+00  
 -2.139139e-04 -2.279912e-04 0.000000e+00  
 -2.289129e-04 -2.401251e-04 0.000000e+00  
 -2.437498e-04 -2.528015e-04 0.000000e+00  
 -2.584245e-04 -2.660145e-04 0.000000e+00  
 -2.729371e-04 -2.797581e-04 0.000000e+00  
 -2.872875e-04 -2.940265e-04 0.000000e+00  
 -3.014757e-04 -3.088139e-04 0.000000e+00  
 -3.155018e-04 -3.241142e-04 0.000000e+00  
 -3.293658e-04 -3.399216e-04 0.000000e+00  
 -3.430676e-04 -3.562301e-04 0.000000e+00  
 -3.566072e-04 -3.730340e-04 0.000000e+00  
 -3.699847e-04 -3.903273e-04 0.000000e+00  
 -3.832000e-04 -4.081041e-04 0.000000e+00  
 -3.962532e-04 -4.263585e-04 0.000000e+00  
 -4.091443e-04 -4.450847e-04 0.000000e+00  
 -4.218732e-04 -4.642766e-04 0.000000e+00  
 -4.344399e-04 -4.839285e-04 0.000000e+00  
 -4.468445e-04 -5.040343e-04 0.000000e+00  
 -4.590869e-04 -5.245884e-04 0.000000e+00  
 -4.711672e-04 -5.455846e-04 0.000000e+00  
 -4.830853e-04 -5.670172e-04 0.000000e+00  
 -4.948413e-04 -5.888802e-04 0.000000e+00  
 -5.064351e-04 -6.111677e-04 0.000000e+00  
 -5.178668e-04 -6.338739e-04 0.000000e+00  
 -5.291363e-04 -6.569929e-04 0.000000e+00  
 -5.402437e-04 -6.805187e-04 0.000000e+00  
 -5.511889e-04 -7.044455e-04 0.000000e+00  
 -5.619720e-04 -7.287673e-04 0.000000e+00  
 -5.725929e-04 -7.534783e-04 0.000000e+00  
 -5.830517e-04 -7.785725e-04 0.000000e+00  
 -5.933483e-04 -8.040441e-04 0.000000e+00  
 -6.034828e-04 -8.298872e-04 0.000000e+00  
 -6.134551e-04 -8.560959e-04 0.000000e+00  
 -6.232652e-04 -8.826642e-04 0.000000e+00  
 -6.329132e-04 -9.095864e-04 0.000000e+00  
 -6.423991e-04 -9.368564e-04 0.000000e+00  
 -6.517228e-04 -9.644684e-04 0.000000e+00  
 -6.608844e-04 -9.924165e-04 0.000000e+00  
 -6.698838e-04 -1.020695e-03 0.000000e+00  
 -6.787210e-04 -1.049297e-03 0.000000e+00  
 -6.873961e-04 -1.078218e-03 0.000000e+00  
 -6.959091e-04 -1.107452e-03 0.000000e+00  
 -7.042599e-04 -1.136992e-03 0.000000e+00  
 -7.124485e-04 -1.166833e-03 0.000000e+00  
 -7.204750e-04 -1.196969e-03 0.000000e+00  
 -7.283393e-04 -1.227393e-03 0.000000e+00  
 -7.360415e-04 -1.258101e-03 0.000000e+00  
 -7.435816e-04 -1.289086e-03 0.000000e+00  
 -7.509595e-04 -1.320342e-03 0.000000e+00  
 -7.581752e-04 -1.351863e-03 0.000000e+00  
 -7.652288e-04 -1.383644e-03 0.000000e+00  
 -7.721202e-04 -1.415678e-03 0.000000e+00  
 -7.788495e-04 -1.447960e-03 0.000000e+00  
 -7.854167e-04 -1.480484e-03 0.000000e+00  
 -7.918217e-04 -1.513243e-03 0.000000e+00  
 -7.980645e-04 -1.546233e-03 0.000000e+00  
 -8.041452e-04 -1.579447e-03 0.000000e+00  
 -8.100637e-04 -1.612878e-03 0.000000e+00  
 -8.158201e-04 -1.646522e-03 0.000000e+00  
 -8.214144e-04 -1.680373e-03 0.000000e+00  
 -8.268465e-04 -1.714424e-03 0.000000e+00  
 -8.321164e-04 -1.748669e-03 0.000000e+00  
 -8.372242e-04 -1.783103e-03 0.000000e+00  
 -8.421699e-04 -1.817720e-03 0.000000e+00  
 -8.469534e-04 -1.852514e-03 0.000000e+00  
 -8.515747e-04 -1.887479e-03 0.000000e+00  
 -8.560339e-04 -1.922609e-03 0.000000e+00  
 -8.603310e-04 -1.957898e-03 0.000000e+00  
 -8.644659e-04 -1.993340e-03 0.000000e+00  
 -8.684387e-04 -2.028930e-03 0.000000e+00  
 -8.722494e-04 -2.064662e-03 0.000000e+00  
 -8.758979e-04 -2.100529e-03 0.000000e+00  
 -8.793843e-04 -2.136525e-03 0.000000e+00  
 -8.827085e-04 -2.172646e-03 0.000000e+00  
 -8.858706e-04 -2.208884e-03 0.000000e+00  
 -8.888706e-04 -2.245235e-03 0.000000e+00  
 -8.917085e-04 -2.281692e-03 0.000000e+00  
 -8.943842e-04 -2.318249e-03 0.000000e+00  
 -8.968978e-04 -2.354900e-03 0.000000e+00  
 -8.992493e-04 -2.391640e-03 0.000000e+00  
 -9.014388e-04 -2.428462e-03 0.000000e+00  
 -9.034661e-04 -2.465361e-03 0.000000e+00  
 -9.053313e-04 -2.502331e-03 0.000000e+00  
 -9.070344e-04 -2.539366e-03 0.000000e+00  
 -9.085755e-04 -2.576460e-03 0.000000e+00  
 -9.099545e-04 -2.613607e-03 0.000000e+00  
 -9.111715e-04 -2.650802e-03 0.000000e+00  
 -9.122264e-04 -2.688038e-03 0.000000e+00  
 -9.131194e-04 -2.725310e-03 0.000000e+00  
 -9.138503e-04 -2.762612e-03 0.000000e+00  
 -9.144190e-04 -2.799939e-03 0.000000e+00  
 -9.148253e-04 -2.837285e-03 0.000000e+00  
 -9.150679e-04 -2.874649e-03 0.000000e+00  
 -9.151517e-04 -2.912024e-03 0.000000e+00  
 1.369002e-04 -1.011551e-04 0.000000e+00  
 1.191652e-04 -1.006031e-04 0.000000e+00  
 1.015866e-04 -1.007174e-04 0.000000e+00  
 8.416417e-05 -1.014921e-04 0.000000e+00  
 6.689803e-05 -1.029213e-04 0.000000e+00  
 4.978813e-05 -1.049992e-04 0.000000e+00  
 3.283448e-05 -1.077198e-04 0.000000e+00  
 1.603708e-05 -1.110773e-04 0.000000e+00  
 -6.040745e-07 -1.150657e-04 0.000000e+00  
 -1.708898e-05 -1.196791e-04 0.000000e+00  
 -3.341762e-05 -1.249116e-04 0.000000e+00  
 -4.959002e-05 -1.307574e-04 0.000000e+00  
 -6.560616e-05 -1.372105e-04 0.000000e+00  
 -8.146605e-05 -1.442651e-04 0.000000e+00  
 -9.716968e-05 -1.519152e-04 0.000000e+00  
 -1.127171e-04 -1.601550e-04 0.000000e+00  
 -1.281082e-04 -1.689785e-04 0.000000e+00  
 -1.433430e-04 -1.783798e-04 0.000000e+00  
 -1.584217e-04 -1.883531e-04 0.000000e+00  
 -1.733440e-04 -1.988925e-04 0.000000e+00  
 -1.881101e-04 -2.099920e-04 0.000000e+00  
 -2.027200e-04 -2.216458e-04 0.000000e+00  
 -2.171736e-04 -2.338479e-04 0.000000e+00  
 -2.314709e-04 -2.465926e-04 0.000000e+00  
 -2.456120e-04 -2.598738e-04 0.000000e+00  
 -2.595968e-04 -2.736856e-04 0.000000e+00  
 -2.734254e-04 -2.880223e-04 0.000000e+00  
 -2.870977e-04 -3.028779e-04 0.000000e+00  
 -3.006137e-04 -3.182464e-04 0.000000e+00  
 -3.139735e-04 -3.341220e-04 0.000000e+00  
 -3.271771e-04 -3.504988e-04 0.000000e+00  
 -3.402244e-04 -3.673710e-04 0.000000e+00  
 -3.531154e-04 -3.847325e-04 0.000000e+00  
 -3.658502e-04 -4.025775e-04 0.000000e+00  
 -3.784287e-04 -4.209001e-04 0.000000e+00  
 -3.908510e-04 -4.396945e-04 0.000000e+00  
 -4.031170e-04 -4.589547e-04 0.000000e+00  
 -4.152268e-04 -4.786748e-04 0.000000e+00  
 -4.271803e-04 -4.988489e-04 0.000000e+00  
 -4.389776e-04 -5.194711e-04 0.000000e+00  
 -4.506186e-04 -5.405356e-04 0.000000e+00  
 -4.621033e-04 -5.620364e-04 0.000000e+00  
 -4.734318e-04 -5.839676e-04 0.000000e+00  
 -4.846040e-04 -6.063234e-04 0.000000e+00  
 -4.956200e-04 -6.290978e-04 0.000000e+00  
 -5.064797e-04 -6.522850e-04 0.000000e+00  
 -5.171832e-04 -6.758791e-04 0.000000e+00  
 -5.277304e-04 -6.998741e-04 0.000000e+00  
 -5.381214e-04 -7.242641e-04 0.000000e+00  
 -5.483561e-04 -7.490433e-04 0.000000e+00  
 -5.584345e-04 -7.742058e-04 0.000000e+00  
 -5.683567e-04 -7.997456e-04 0.000000e+00  
 -5.781226e-04 -8.256570e-04 0.000000e+00  
 -5.877323e-04 -8.519339e-04 0.000000e+00  
 -5.971857e-04 -8.785705e-04 0.000000e+00  
 -6.064829e-04 -9.055608e-04 0.000000e+00  
 -6.156238e-04 -9.328991e-04 0.000000e+00  
 -6.246085e-04 -9.605793e-04 0.000000e+00  
 -6.334369e-04 -9.885957e-04 0.000000e+00  
 -6.421091e-04 -1.016942e-03 0.000000e+00  
 -6.506250e-04 -1.045613e-03 0.000000e+00  
 -6.589846e-04 -1.074602e-03 0.000000e+00  
 -6.671880e-04 -1.103904e-03 0.000000e+00  
 -6.752351e-04 -1.133512e-03 0.000000e+00  
 -6.831260e-04 -1.163422e-03 0.000000e+00  
 -6.908606e-04 -1.193625e-03 0.000000e+00  
 -6.984390e-04 -1.224118e-03 0.000000e+00  
 -7.058611e-04 -1.254894e-03 0.000000e+00  
 -7.131270e-04 -1.285947e-03 0.000000e+00  
 -7.202366e-04 -1.317271e-03 0.000000e+00  
 -7.271899e-04 -1.348861e-03 0.000000e+00  
 -7.339870e-04 -1.380710e-03 0.000000e+00  
 -7.406279e-04 -1.412813e-03 0.000000e+00  
 -7.471125e-04 -1.445163e-03 0.000000e+00  
 -7.534408e-04 -1.477755e-03 0.000000e+00  
 -7.596129e-04 -1.510582e-03 0.000000e+00  
 -7.656287e-04 -1.543640e-03 0.000000e+00  
 -7.714883e-04 -1.576922e-03 0.000000e+00  
 -7.771916e-04 -1.610422e-03 0.000000e+00  
 -7.827387e-04 -1.644134e-03 0.000000e+00  
 -7.881295e-04 -1.678053e-03 0.000000e+00  
 -7.933640e-04 -1.712172e-03 0.000000e+00  
 -7.984423e-04 -1.746486e-03 0.000000e+00  
 -8.033644e-04 -1.780988e-03 0.000000e+00  
 -8.081302e-04 -1.815673e-03 0.000000e+00  
 -8.127398e-04 -1.850535e-03 0.000000e+00  
 -8.171931e-04 -1.885568e-03 0.000000e+00  
 -8.214901e-04 -1.920767e-03 0.000000e+00  
 -8.256309e-04 -1.956124e-03 0.000000e+00  
 -8.296155e-04 -1.991635e-03 0.000000e+00  
 -8.334438e-04 -2.027293e-03 0.000000e+00  
 -8.371159e-04 -2.063092e-03 0.000000e+00  
 -8.406317e-04 -2.099028e-03 0.000000e+00  
 -8.439913e-04 -2.135093e-03 0.000000e+00  
 -8.471947e-04 -2.171281e-03 0.000000e+00  
 -8.502418e-04 -2.207588e-03 0.000000e+00  
 -8.531326e-04 -2.244007e-03 0.000000e+00  
 -8.558673e-04 -2.280532e-03 0.000000e+00  
 -8.584457e-04 -2.317157e-03 0.000000e+00  
 -8.608679e-04 -2.353876e-03 0.000000e+00  
 -8.631338e-04 -2.390684e-03 0.000000e+00  
 -8.652435e-04 -2.427575e-03 0.000000e+00  
 -8.671970e-04 -2.464542e-03 0.000000e+00  
 -8.689943e-04 -2.501581e-03 0.000000e+00  
 -8.706354e-04 -2.538684e-03 0.000000e+00  
 -8.721202e-04 -2.575846e-03 0.000000e+00  
 -8.734488e-04 -2.613061e-03 0.000000e+00  
 -8.746212e-04 -2.650324e-03 0.000000e+00  
 -8.756373e-04 -2.687628e-03 0.000000e+00  
 -8.764972e-04 -2.724969e-03 0.000000e+00  
 -8.772006e-04 -2.762339e-03 0.000000e+00  
 -8.777474e-04 -2.799734e-03 0.000000e+00  
 -8.781374e-04 -2.837149e-03 0.000000e+00  
 -8.783718e-04 -2.874578e-03 0.000000e+00  
 -8.784522e-04 -2.912012e-03 0.000000e+00  
 1.348989e-04 -9.366482e-05 0.000000e+00  
 1.178332e-04 -9.317858e-05 0.000000e+00  
 1.009178e-04 -9.335860e-05 0.000000e+00  
 8.415283e-05 -9.419904e-05 0.000000e+00  
 6.753823e-05 -9.569400e-05 0.000000e+00  
 5.107398e-05 -9.783759e-05 0.000000e+00  
 3.476009e-05 -1.006239e-04 0.000000e+00  
 1.859655e-05 -1.040471e-04 0.000000e+00  
 2.583372e-06 -1.081012e-04 0.000000e+00  
 -1.327945e-05 -1.127803e-04 0.000000e+00  
 -2.899192e-05 -1.180785e-04 0.000000e+00  
 -4.455403e-05 -1.239900e-04 0.000000e+00  
 -5.996579e-05 -1.305088e-04 0.000000e+00  
 -7.522719e-05 -1.376291e-04 0.000000e+00  
 -9.033823e-05 -1.453449e-04 0.000000e+00  
 -1.052989e-04 -1.536504e-04 0.000000e+00  
 -1.201092e-04 -1.625396e-04 0.000000e+00  
 -1.347692e-04 -1.720066e-04 0.000000e+00  
 -1.492788e-04 -1.820456e-04 0.000000e+00  
 -1.636381e-04 -1.926507e-04 0.000000e+00  
 -1.778469e-04 -2.038159e-04 0.000000e+00  
 -1.919055e-04 -2.155354e-04 0.000000e+00  
 -2.058136e-04 -2.278033e-04 0.000000e+00  
 -2.195715e-04 -2.406136e-04 0.000000e+00  
 -2.331789e-04 -2.539605e-04 0.000000e+00  
 -2.466360e-04 -2.678381e-04 0.000000e+00  
 -2.599427e-04 -2.822404e-04 0.000000e+00  
 -2.730991e-04 -2.971617e-04 0.000000e+00  
 -2.861051e-04 -3.125959e-04 0.000000e+00  
 -2.989608e-04 -3.285373e-04 0.000000e+00  
 -3.116661e-04 -3.449798e-04 0.000000e+00  
 -3.242210e-04 -3.619176e-04 0.000000e+00  
 -3.366256e-04 -3.793448e-04 0.000000e+00  
 -3.488799e-04 -3.972556e-04 0.000000e+00  
 -3.609837e-04 -4.156439e-04 0.000000e+00  
 -3.729372e-04 -4.345040e-04 0.000000e+00  
 -3.847404e-04 -4.538298e-04 0.000000e+00  
 -3.963932e-04 -4.736156e-04 0.000000e+00  
 -4.078956e-04 -4.938554e-04 0.000000e+00  
 -4.192477e-04 -5.145434e-04 0.000000e+00  
 -4.304494e-04 -5.356736e-04 0.000000e+00  
 -4.415008e-04 -5.572401e-04 0.000000e+00  
 -4.524017e-04 -5.792370e-04 0.000000e+00  
 -4.631524e-04 -6.016585e-04 0.000000e+00  
 -4.737527e-04 -6.244986e-04 0.000000e+00  
 -4.842026e-04 -6.477515e-04 0.000000e+00  
 -4.945022e-04 -6.714113e-04 0.000000e+00  
 -5.046514e-04 -6.954720e-04 0.000000e+00  
 -5.146502e-04 -7.199277e-04 0.000000e+00  
 -5.244987e-04 -7.447726e-04 0.000000e+00  
 -5.341968e-04 -7.700008e-04 0.000000e+00  
 -5.437446e-04 -7.956064e-04 0.000000e+00  
 -5.531420e-04 -8.215834e-04 0.000000e+00  
 -5.623891e-04 -8.479260e-04 0.000000e+00  
 -5.714857e-04 -8.746283e-04 0.000000e+00  
 -5.804321e-04 -9.016843e-04 0.000000e+00  
 -5.892281e-04 -9.290883e-04 0.000000e+00  
 -5.978737e-04 -9.568343e-04 0.000000e+00  
 -6.063689e-04 -9.849163e-04 0.000000e+00  
 -6.147138e-04 -1.013329e-03 0.000000e+00  
 -6.229084e-04 -1.042065e-03 0.000000e+00  
 -6.309526e-04 -1.071120e-03 0.000000e+00  
 -6.388464e-04 -1.100488e-03 0.000000e+00  
 -6.465899e-04 -1.130162e-03 0.000000e+00  
 -6.541830e-04 -1.160136e-03 0.000000e+00  
 -6.616257e-04 -1.190406e-03 0.000000e+00  
 -6.689181e-04 -1.220965e-03 0.000000e+00  
 -6.760602e-04 -1.251806e-03 0.000000e+00  
 -6.830518e-04 -1.282925e-03 0.000000e+00  
 -6.898931e-04 -1.314315e-03 0.000000e+00  
 -6.965841e-04 -1.345970e-03 0.000000e+00  
 -7.031247e-04 -1.377885e-03 0.000000e+00  
 -7.095150e-04 -1.410053e-03 0.000000e+00  
 -7.157548e-04 -1.442469e-03 0.000000e+00  
 -7.218444e-04 -1.475127e-03 0.000000e+00  
 -7.277835e-04 -1.508020e-03 0.000000e+00  
 -7.335724e-04 -1.541144e-03 0.000000e+00  
 -7.392108e-04 -1.574491e-03 0.000000e+00  
 -7.446989e-04 -1.608057e-03 0.000000e+00  
 -7.500367e-04 -1.641835e-03 0.000000e+00  
 -7.552240e-04 -1.675819e-03 0.000000e+00  
 -7.602611e-04 -1.710004e-03 0.000000e+00  
 -7.651477e-04 -1.744383e-03 0.000000e+00  
 -7.698841e-04 -1.778951e-03 0.000000e+00  
 -7.744700e-04 -1.813702e-03 0.000000e+00  
 -7.789056e-04 -1.848630e-03 0.000000e+00  
 -7.831909e-04 -1.883729e-03 0.000000e+00  
 -7.873258e-04 -1.918993e-03 0.000000e+00  
 -7.913103e-04 -1.954416e-03 0.000000e+00  
 -7.951445e-04 -1.989992e-03 0.000000e+00  
 -7.988284e-04 -2.025716e-03 0.000000e+00  
 -8.023619e-04 -2.061581e-03 0.000000e+00  
 -8.057450e-04 -2.097582e-03 0.000000e+00  
 -8.089778e-04 -2.133713e-03 0.000000e+00  
 -8.120603e-04 -2.169967e-03 0.000000e+00  
 -8.149924e-04 -2.206340e-03 0.000000e+00  
 -8.177741e-04 -2.242824e-03 0.000000e+00  
 -8.204055e-04 -2.279415e-03 0.000000e+00  
 -8.228866e-04 -2.316106e-03 0.000000e+00  
 -8.252173e-04 -2.352891e-03 0.000000e+00  
 -8.273977e-04 -2.389765e-03 0.000000e+00  
 -8.294277e-04 -2.426721e-03 0.000000e+00  
 -8.313074e-04 -2.463754e-03 0.000000e+00  
 -8.330367e-04 -2.500858e-03 0.000000e+00  
 -8.346157e-04 -2.538027e-03 0.000000e+00  
 -8.360443e-04 -2.575254e-03 0.000000e+00  
 -8.373226e-04 -2.612536e-03 0.000000e+00  
 -8.384504e-04 -2.649864e-03 0.000000e+00  
 -8.394278e-04 -2.687234e-03 0.000000e+00  