# vtk DataFile Version 1.0 
PolyMesh 
ASCII 
 
DATASET POLYDATA 
 
POINTS 2002 float 
8.000000e+00 2.000000e+00 0.000000e+00  
 7.859857e+00 2.000000e+00 0.000000e+00  
 8.000000e+00 1.783157e+00 0.000000e+00  
 8.000000e+00 1.577195e+00 0.000000e+00  
 7.852265e+00 1.787861e+00 0.000000e+00  
 7.825766e+00 1.823490e+00 0.000000e+00  
 7.679604e+00 1.847078e+00 0.000000e+00  
 7.672971e+00 2.000000e+00 0.000000e+00  
 7.802239e+00 1.658818e+00 0.000000e+00  
 7.877715e+00 1.573422e+00 0.000000e+00  
 8.000000e+00 1.363520e+00 0.000000e+00  
 8.000000e+00 1.159289e+00 0.000000e+00  
 8.000000e+00 9.539593e-01 0.000000e+00  
 7.812479e+00 1.450721e+00 0.000000e+00  
 7.869250e+00 1.365618e+00 0.000000e+00  
 8.000000e+00 7.557371e-01 0.000000e+00  
 7.713906e+00 1.645141e+00 0.000000e+00  
 7.624363e+00 1.728419e+00 0.000000e+00  
 7.627174e+00 1.800592e+00 0.000000e+00  
 7.497912e+00 1.863756e+00 0.000000e+00  
 7.499676e+00 2.000000e+00 0.000000e+00  
 7.695106e+00 1.457243e+00 0.000000e+00  
 7.659687e+00 1.517658e+00 0.000000e+00  
 7.804437e+00 1.254707e+00 0.000000e+00  
 7.875968e+00 1.158257e+00 0.000000e+00  
 7.809086e+00 1.046958e+00 0.000000e+00  
 7.867731e+00 9.557081e-01 0.000000e+00  
 7.805924e+00 8.510803e-01 0.000000e+00  
 7.862641e+00 7.565129e-01 0.000000e+00  
 7.641132e+00 1.344315e+00 0.000000e+00  
 7.721729e+00 1.250924e+00 0.000000e+00  
 7.568168e+00 1.332882e+00 0.000000e+00  
 8.000000e+00 5.593010e-01 0.000000e+00  
 8.000000e+00 3.623850e-01 0.000000e+00  
 7.804237e+00 6.573444e-01 0.000000e+00  
 7.861844e+00 5.593126e-01 0.000000e+00  
 7.530390e+00 1.539813e+00 0.000000e+00  
 7.511743e+00 1.654920e+00 0.000000e+00  
 7.423927e+00 1.698375e+00 0.000000e+00  
 7.415296e+00 1.805374e+00 0.000000e+00  
 7.316142e+00 1.853366e+00 0.000000e+00  
 7.312147e+00 2.000000e+00 0.000000e+00  
 7.466184e+00 1.474931e+00 0.000000e+00  
 7.467850e+00 1.419232e+00 0.000000e+00  
 7.133967e+00 2.000000e+00 0.000000e+00  
 8.000000e+00 1.643613e-01 0.000000e+00  
 7.707079e+00 1.051585e+00 0.000000e+00  
 7.655809e+00 1.132610e+00 0.000000e+00  
 7.696793e+00 8.539938e-01 0.000000e+00  
 7.645348e+00 9.426066e-01 0.000000e+00  
 7.694241e+00 6.577415e-01 0.000000e+00  
 7.639299e+00 7.539562e-01 0.000000e+00  
 7.544982e+00 1.142369e+00 0.000000e+00  
 7.506526e+00 1.205788e+00 0.000000e+00  
 7.360759e+00 1.329448e+00 0.000000e+00  
 7.397062e+00 1.223791e+00 0.000000e+00  
 7.803903e+00 4.622936e-01 0.000000e+00  
 7.862946e+00 3.621469e-01 0.000000e+00  
 7.804085e+00 2.652803e-01 0.000000e+00  
 7.864330e+00 1.641320e-01 0.000000e+00  
 7.638075e+00 5.622274e-01 0.000000e+00  
 7.696234e+00 4.616344e-01 0.000000e+00  
 7.333315e+00 1.540548e+00 0.000000e+00  
 7.327568e+00 1.631878e+00 0.000000e+00  
 7.231542e+00 1.684475e+00 0.000000e+00  
 7.224430e+00 1.798228e+00 0.000000e+00  
 7.132331e+00 1.844571e+00 0.000000e+00  
 7.251306e+00 1.467968e+00 0.000000e+00  
 7.275367e+00 1.357146e+00 0.000000e+00  
 6.950977e+00 2.000000e+00 0.000000e+00  
 7.049085e+00 1.802885e+00 0.000000e+00  
 6.951218e+00 1.852272e+00 0.000000e+00  
 6.768275e+00 2.000000e+00 0.000000e+00  
 8.000000e+00 -3.473249e-02 0.000000e+00  
 8.000000e+00 -2.346823e-01 0.000000e+00  
 8.000000e+00 -4.351978e-01 0.000000e+00  
 8.000000e+00 -6.359960e-01 0.000000e+00  
 8.000000e+00 -8.369075e-01 0.000000e+00  
 7.804295e+00 6.666395e-02 0.000000e+00  
 7.865462e+00 -3.489155e-02 0.000000e+00  
 7.528791e+00 9.491818e-01 0.000000e+00  
 7.485632e+00 1.028253e+00 0.000000e+00  
 7.523762e+00 7.553430e-01 0.000000e+00  
 7.473467e+00 8.486077e-01 0.000000e+00  
 7.527095e+00 5.609288e-01 0.000000e+00  
 7.470324e+00 6.624578e-01 0.000000e+00  
 7.361077e+00 1.040252e+00 0.000000e+00  
 7.321010e+00 1.137964e+00 0.000000e+00  
 7.236006e+00 1.157143e+00 0.000000e+00  
 7.191764e+00 1.286316e+00 0.000000e+00  
 7.639049e+00 3.668353e-01 0.000000e+00  
 7.699141e+00 2.645404e-01 0.000000e+00  
 7.640285e+00 1.689406e-01 0.000000e+00  
 7.701644e+00 6.610513e-02 0.000000e+00  
 7.532280e+00 3.652151e-01 0.000000e+00  
 7.472349e+00 4.692544e-01 0.000000e+00  
 7.040850e+00 1.660843e+00 0.000000e+00  
 7.142805e+00 1.503760e+00 0.000000e+00  
 7.124354e+00 1.618219e+00 0.000000e+00  
 7.065637e+00 1.434936e+00 0.000000e+00  
 7.105769e+00 1.302020e+00 0.000000e+00  
 6.860589e+00 1.799864e+00 0.000000e+00  
 6.765782e+00 1.853313e+00 0.000000e+00  
 6.966769e+00 1.631049e+00 0.000000e+00  
 6.860424e+00 1.700839e+00 0.000000e+00  
 6.677504e+00 1.807638e+00 0.000000e+00  
 6.581815e+00 1.856144e+00 0.000000e+00  
 6.580325e+00 2.000000e+00 0.000000e+00  
 8.000000e+00 -1.037980e+00 0.000000e+00  
 8.000000e+00 -1.239296e+00 0.000000e+00  
 8.000000e+00 -1.440316e+00 0.000000e+00  
 8.000000e+00 -1.641684e+00 0.000000e+00  
 8.000000e+00 -1.825734e+00 0.000000e+00  
 8.000000e+00 -2.000000e+00 0.000000e+00  
 7.804430e+00 -1.331430e-01 0.000000e+00  
 7.866160e+00 -2.347539e-01 0.000000e+00  
 7.804464e+00 -3.336732e-01 0.000000e+00  
 7.866375e+00 -4.351804e-01 0.000000e+00  
 7.804378e+00 -5.344796e-01 0.000000e+00  
 7.866162e+00 -6.359106e-01 0.000000e+00  
 7.804175e+00 -7.352275e-01 0.000000e+00  
 7.865742e+00 -8.367940e-01 0.000000e+00  
 7.803844e+00 -9.359249e-01 0.000000e+00  
 7.865431e+00 -1.037825e+00 0.000000e+00  
 7.703274e+00 -1.334533e-01 0.000000e+00  
 7.641257e+00 -3.067963e-02 0.000000e+00  
 7.036565e+00 1.240499e+00 0.000000e+00  
 7.304154e+00 9.519625e-01 0.000000e+00  
 7.349411e+00 8.517577e-01 0.000000e+00  
 7.363135e+00 4.662368e-01 0.000000e+00  
 7.298509e+00 7.676392e-01 0.000000e+00  
 7.354695e+00 6.600468e-01 0.000000e+00  
 7.302752e+00 5.739263e-01 0.000000e+00  
 7.132894e+00 1.073326e+00 0.000000e+00  
 7.178123e+00 9.607821e-01 0.000000e+00  
 7.082414e+00 1.089471e+00 0.000000e+00  
 7.536930e+00 1.676522e-01 0.000000e+00  
 7.475171e+00 2.722105e-01 0.000000e+00  
 7.540128e+00 -3.146388e-02 0.000000e+00  
 7.477540e+00 7.271542e-02 0.000000e+00  
 7.308263e+00 3.767760e-01 0.000000e+00  
 7.370952e+00 2.697565e-01 0.000000e+00  
 6.959234e+00 1.454255e+00 0.000000e+00  
 6.929854e+00 1.504180e+00 0.000000e+00  
 6.892366e+00 1.332904e+00 0.000000e+00  
 6.941836e+00 1.249447e+00 0.000000e+00  
 6.674678e+00 1.666651e+00 0.000000e+00  
 6.754313e+00 1.631084e+00 0.000000e+00  
 6.782110e+00 1.520012e+00 0.000000e+00  
 6.605890e+00 1.635731e+00 0.000000e+00  
 6.492716e+00 1.702314e+00 0.000000e+00  
 6.491660e+00 1.801739e+00 0.000000e+00  
 6.394799e+00 1.854574e+00 0.000000e+00  
 6.394555e+00 2.000000e+00 0.000000e+00  
 7.803216e+00 -1.137276e+00 0.000000e+00  
 7.865126e+00 -1.238977e+00 0.000000e+00  
 7.801901e+00 -1.340615e+00 0.000000e+00  
 7.864475e+00 -1.439936e+00 0.000000e+00  
 7.799798e+00 -1.548109e+00 0.000000e+00  
 7.862228e+00 -1.637362e+00 0.000000e+00  
 7.788207e+00 -1.775388e+00 0.000000e+00  
 7.832759e+00 -1.826764e+00 0.000000e+00  
 7.807616e+00 -2.000000e+00 0.000000e+00  
 7.703888e+00 -3.337259e-01 0.000000e+00  
 7.641811e+00 -2.312713e-01 0.000000e+00  
 7.703535e+00 -5.343023e-01 0.000000e+00  
 7.641905e+00 -4.321097e-01 0.000000e+00  
 7.641560e+00 -6.325808e-01 0.000000e+00  
 7.702496e+00 -7.349322e-01 0.000000e+00  
 7.701517e+00 -9.356956e-01 0.000000e+00  
 7.640963e+00 -8.323054e-01 0.000000e+00  
 7.640472e+00 -1.031472e+00 0.000000e+00  
 7.701364e+00 -1.137099e+00 0.000000e+00  
 7.479048e+00 -1.281030e-01 0.000000e+00  
 7.541557e+00 -2.315234e-01 0.000000e+00  
 6.968427e+00 1.034683e+00 0.000000e+00  
 6.874404e+00 1.143799e+00 0.000000e+00  
 7.122502e+00 8.758330e-01 0.000000e+00  
 7.181807e+00 7.640723e-01 0.000000e+00  
 7.129869e+00 6.776800e-01 0.000000e+00  
 7.203274e+00 3.726202e-01 0.000000e+00  
 7.139162e+00 4.804916e-01 0.000000e+00  
 7.191973e+00 5.690727e-01 0.000000e+00  
 7.010455e+00 8.730571e-01 0.000000e+00  
 6.947555e+00 9.647660e-01 0.000000e+00  
 7.376583e+00 7.113680e-02 0.000000e+00  
 7.312932e+00 1.770336e-01 0.000000e+00  
 7.316062e+00 -2.426887e-02 0.000000e+00  
 7.379484e+00 -1.287608e-01 0.000000e+00  
 7.212328e+00 1.742331e-01 0.000000e+00  
 7.147180e+00 2.812072e-01 0.000000e+00  
 6.729309e+00 1.446981e+00 0.000000e+00  
 6.781248e+00 1.339582e+00 0.000000e+00  
 6.719538e+00 1.245445e+00 0.000000e+00  
 6.798329e+00 1.134921e+00 0.000000e+00  
 6.617018e+00 1.449768e+00 0.000000e+00  
 6.572778e+00 1.512588e+00 0.000000e+00  
 6.397491e+00 1.634424e+00 0.000000e+00  
 6.430411e+00 1.510924e+00 0.000000e+00  
 6.310903e+00 1.665331e+00 0.000000e+00  
 6.303538e+00 1.803587e+00 0.000000e+00  
 6.209819e+00 1.847366e+00 0.000000e+00  
 6.208715e+00 2.000000e+00 0.000000e+00  
 7.640019e+00 -1.231036e+00 0.000000e+00  
 7.702084e+00 -1.340415e+00 0.000000e+00  
 7.639743e+00 -1.431643e+00 0.000000e+00  
 7.703916e+00 -1.548583e+00 0.000000e+00  
 7.644176e+00 -1.629293e+00 0.000000e+00  
 7.713809e+00 -1.769237e+00 0.000000e+00  
 7.630842e+00 -1.840079e+00 0.000000e+00  
 7.654980e+00 -2.000000e+00 0.000000e+00  
 7.479585e+00 -3.292030e-01 0.000000e+00  
 7.541199e+00 -4.318601e-01 0.000000e+00  
 7.479186e+00 -5.295895e-01 0.000000e+00  
 7.539332e+00 -6.319470e-01 0.000000e+00  
 7.478009e+00 -7.285279e-01 0.000000e+00  
 7.536862e+00 -8.316632e-01 0.000000e+00  
 7.534389e+00 -1.231129e+00 0.000000e+00  
 7.534962e+00 -1.031237e+00 0.000000e+00  
 7.476887e+00 -9.257473e-01 0.000000e+00  
 7.476747e+00 -1.121222e+00 0.000000e+00  
 7.379495e+00 -3.289570e-01 0.000000e+00  
 7.317454e+00 -2.259732e-01 0.000000e+00  
 6.814045e+00 9.348388e-01 0.000000e+00  
 6.744634e+00 1.044339e+00 0.000000e+00  
 7.018141e+00 6.718177e-01 0.000000e+00  
 6.957424e+00 7.658493e-01 0.000000e+00  
 7.045829e+00 2.765304e-01 0.000000e+00  
 6.979920e+00 3.820031e-01 0.000000e+00  
 6.968292e+00 5.755699e-01 0.000000e+00  
 7.031698e+00 4.741454e-01 0.000000e+00  
 6.840855e+00 7.605398e-01 0.000000e+00  
 6.780474e+00 8.557279e-01 0.000000e+00  
 7.217627e+00 -2.564718e-02 0.000000e+00  
[...]
 POINT_DATA 2002 
 VECTORS Displacement float 
 9.481032e-04 -2.899818e-03 0.000000e+00  
 9.478308e-04 -2.825439e-03 0.000000e+00  
 8.350300e-04 -2.899569e-03 0.000000e+00  
 7.310369e-04 -2.899480e-03 0.000000e+00  
 8.372515e-04 -2.820919e-03 0.000000e+00  
 8.554074e-04 -2.806861e-03 0.000000e+00  
 8.664900e-04 -2.729368e-03 0.000000e+00  
 9.463453e-04 -2.726539e-03 0.000000e+00  
 7.715145e-04 -2.793968e-03 0.000000e+00  
 7.291378e-04 -2.834115e-03 0.000000e+00  
 6.261229e-04 -2.899436e-03 0.000000e+00  
 5.282376e-04 -2.899437e-03 0.000000e+00  
 4.318308e-04 -2.899435e-03 0.000000e+00  
 6.683190e-04 -2.798977e-03 0.000000e+00  
 6.270890e-04 -2.829266e-03 0.000000e+00  
 3.403472e-04 -2.899441e-03 0.000000e+00  
 7.640946e-04 -2.746813e-03 0.000000e+00  
 8.052155e-04 -2.699494e-03 0.000000e+00  
 8.420324e-04 -2.701303e-03 0.000000e+00  
 8.727706e-04 -2.633179e-03 0.000000e+00  
 9.438808e-04 -2.635070e-03 0.000000e+00  
 6.707939e-04 -2.736134e-03 0.000000e+00  
 7.001927e-04 -2.717393e-03 0.000000e+00  
 5.734226e-04 -2.794283e-03 0.000000e+00  
 5.277255e-04 -2.832630e-03 0.000000e+00  
 4.750467e-04 -2.796444e-03 0.000000e+00  
 4.326037e-04 -2.827981e-03 0.000000e+00  
 3.839894e-04 -2.794475e-03 0.000000e+00  
 3.406596e-04 -2.825065e-03 0.000000e+00  
 6.155019e-04 -2.706844e-03 0.000000e+00  
 5.712043e-04 -2.749819e-03 0.000000e+00  
 6.093545e-04 -2.667694e-03 0.000000e+00  
 2.508950e-04 -2.899448e-03 0.000000e+00  
 1.621135e-04 -2.899455e-03 0.000000e+00  
 2.952627e-04 -2.793358e-03 0.000000e+00  
 2.508678e-04 -2.824508e-03 0.000000e+00  
 7.097671e-04 -2.648508e-03 0.000000e+00  
 7.668008e-04 -2.639223e-03 0.000000e+00  
 7.872827e-04 -2.592860e-03 0.000000e+00  
 8.413813e-04 -2.589068e-03 0.000000e+00  
 8.639890e-04 -2.537123e-03 0.000000e+00  
 9.400669e-04 -2.536411e-03 0.000000e+00  
 6.770753e-04 -2.613882e-03 0.000000e+00  
 6.499586e-04 -2.614471e-03 0.000000e+00  
 9.353525e-04 -2.443044e-03 0.000000e+00  
 7.341288e-05 -2.899461e-03 0.000000e+00  
 4.767747e-04 -2.741450e-03 0.000000e+00  
 5.145792e-04 -2.714055e-03 0.000000e+00  
 3.849416e-04 -2.735492e-03 0.000000e+00  
 4.256443e-04 -2.707919e-03 0.000000e+00  
 2.951372e-04 -2.733785e-03 0.000000e+00  
 3.387767e-04 -2.704237e-03 0.000000e+00  
 5.183268e-04 -2.654496e-03 0.000000e+00  
 5.479652e-04 -2.634113e-03 0.000000e+00  
 6.051853e-04 -2.556788e-03 0.000000e+00  
 5.552868e-04 -2.575571e-03 0.000000e+00  
 2.069622e-04 -2.793024e-03 0.000000e+00  
 1.619872e-04 -2.825019e-03 0.000000e+00  
 1.185052e-04 -2.793023e-03 0.000000e+00  
 7.330255e-05 -2.825722e-03 0.000000e+00  
 2.516538e-04 -2.703243e-03 0.000000e+00  
 2.064554e-04 -2.734623e-03 0.000000e+00  
 7.072213e-04 -2.543583e-03 0.000000e+00  
 7.522937e-04 -2.541249e-03 0.000000e+00  
 7.765853e-04 -2.490891e-03 0.000000e+00  
 8.337465e-04 -2.488247e-03 0.000000e+00  
 8.549816e-04 -2.440314e-03 0.000000e+00  
 6.702368e-04 -2.499477e-03 0.000000e+00  
 6.171368e-04 -2.511437e-03 0.000000e+00  
 9.294049e-04 -2.347647e-03 0.000000e+00  
 8.314683e-04 -2.396151e-03 0.000000e+00  
 8.534684e-04 -2.345628e-03 0.000000e+00  
 9.223239e-04 -2.252991e-03 0.000000e+00  
 -1.550173e-05 -2.899463e-03 0.000000e+00  
 -1.048566e-04 -2.899462e-03 0.000000e+00  
 -1.948519e-04 -2.899459e-03 0.000000e+00  
 -2.856952e-04 -2.899453e-03 0.000000e+00  
 -3.776461e-04 -2.899449e-03 0.000000e+00  
 2.975397e-05 -2.793092e-03 0.000000e+00  
 -1.557081e-05 -2.826326e-03 0.000000e+00  
 4.279203e-04 -2.645112e-03 0.000000e+00  
 4.643039e-04 -2.622174e-03 0.000000e+00  
 3.387910e-04 -2.641833e-03 0.000000e+00  
 3.811296e-04 -2.614993e-03 0.000000e+00  
 2.506250e-04 -2.643191e-03 0.000000e+00  
 2.962317e-04 -2.612757e-03 0.000000e+00  
 4.686444e-04 -2.555346e-03 0.000000e+00  
 5.137966e-04 -2.534405e-03 0.000000e+00  
 5.216159e-04 -2.489091e-03 0.000000e+00  
 5.818612e-04 -2.466416e-03 0.000000e+00  
 1.637452e-04 -2.703532e-03 0.000000e+00  
 1.180575e-04 -2.736043e-03 0.000000e+00  
 7.529267e-05 -2.704064e-03 0.000000e+00  
 2.947630e-05 -2.737330e-03 0.000000e+00  
 1.627440e-04 -2.645685e-03 0.000000e+00  
 2.091448e-04 -2.613429e-03 0.000000e+00  
 7.600997e-04 -2.390103e-03 0.000000e+00  
 6.854365e-04 -2.442263e-03 0.000000e+00  
 7.411729e-04 -2.433634e-03 0.000000e+00  
 6.504083e-04 -2.400780e-03 0.000000e+00  
 5.876978e-04 -2.420837e-03 0.000000e+00  
 8.239208e-04 -2.297606e-03 0.000000e+00  
 8.473219e-04 -2.249187e-03 0.000000e+00  
 7.433445e-04 -2.350835e-03 0.000000e+00  
 7.745586e-04 -2.296089e-03 0.000000e+00  
 8.209031e-04 -2.202731e-03 0.000000e+00  
 8.410650e-04 -2.154287e-03 0.000000e+00  
 9.138572e-04 -2.156349e-03 0.000000e+00  
 -4.710648e-04 -2.899447e-03 0.000000e+00  
 -5.663329e-04 -2.899453e-03 0.000000e+00  
 -6.635326e-04 -2.899470e-03 0.000000e+00  
 -7.633355e-04 -2.899519e-03 0.000000e+00  
 -8.569866e-04 -2.899602e-03 0.000000e+00  
 -9.481717e-04 -2.899767e-03 0.000000e+00  
 -5.942207e-05 -2.793176e-03 0.000000e+00  
 -1.048780e-04 -2.826731e-03 0.000000e+00  
 -1.491413e-04 -2.793261e-03 0.000000e+00  
 -1.948248e-04 -2.826912e-03 0.000000e+00  
 -2.395364e-04 -2.793338e-03 0.000000e+00  
 -2.856277e-04 -2.826900e-03 0.000000e+00  
 -3.307904e-04 -2.793409e-03 0.000000e+00  
 -3.775546e-04 -2.826817e-03 0.000000e+00  
 -4.232397e-04 -2.793472e-03 0.000000e+00  
 -4.709418e-04 -2.826836e-03 0.000000e+00  
 -5.950449e-05 -2.738230e-03 0.000000e+00  
 -1.366089e-05 -2.704556e-03 0.000000e+00  
 5.572513e-04 -2.383608e-03 0.000000e+00  
 4.270889e-04 -2.524399e-03 0.000000e+00  
 3.815215e-04 -2.548246e-03 0.000000e+00  
 2.072855e-04 -2.554441e-03 0.000000e+00  
 3.426738e-04 -2.520560e-03 0.000000e+00  
 2.943758e-04 -2.550404e-03 0.000000e+00  
 2.552087e-04 -2.522178e-03 0.000000e+00  
 4.808963e-04 -2.433521e-03 0.000000e+00  
 4.295965e-04 -2.456952e-03 0.000000e+00  
 4.875656e-04 -2.406746e-03 0.000000e+00  
 7.459660e-05 -2.648025e-03 0.000000e+00  
 1.210610e-04 -2.614674e-03 0.000000e+00  
 -1.398816e-05 -2.649712e-03 0.000000e+00  
 3.231093e-05 -2.615826e-03 0.000000e+00  
 1.670864e-04 -2.524671e-03 0.000000e+00  
 1.196909e-04 -2.558326e-03 0.000000e+00  
 6.571039e-04 -2.344788e-03 0.000000e+00  
 6.803947e-04 -2.329895e-03 0.000000e+00  
 5.975786e-04 -2.308257e-03 0.000000e+00  
 5.594430e-04 -2.333515e-03 0.000000e+00  
 7.511243e-04 -2.198886e-03 0.000000e+00  
 7.366655e-04 -2.239735e-03 0.000000e+00  
 6.836989e-04 -2.252681e-03 0.000000e+00  
 7.334778e-04 -2.162751e-03 0.000000e+00  
 7.612080e-04 -2.105574e-03 0.000000e+00  
 8.099086e-04 -2.106940e-03 0.000000e+00  
 8.313568e-04 -2.058551e-03 0.000000e+00  
 9.042985e-04 -2.061664e-03 0.000000e+00  
 -5.175499e-04 -2.793437e-03 0.000000e+00  
 -5.661175e-04 -2.826904e-03 0.000000e+00  
 -6.147182e-04 -2.793104e-03 0.000000e+00  
 -6.632684e-04 -2.826838e-03 0.000000e+00  
 -7.162245e-04 -2.792432e-03 0.000000e+00  
 -7.610491e-04 -2.825980e-03 0.000000e+00  
 -8.305060e-04 -2.786817e-03 0.000000e+00  
 -8.571423e-04 -2.810671e-03 0.000000e+00  
 -9.475085e-04 -2.797694e-03 0.000000e+00  
 -1.490254e-04 -2.738665e-03 0.000000e+00  
 -1.031009e-04 -2.704926e-03 0.000000e+00  
 -2.392321e-04 -2.738662e-03 0.000000e+00  
 -1.930342e-04 -2.705152e-03 0.000000e+00  
 -2.835157e-04 -2.705245e-03 0.000000e+00  
 -3.303434e-04 -2.738377e-03 0.000000e+00  
 -4.227319e-04 -2.738214e-03 0.000000e+00  
 -3.746973e-04 -2.705307e-03 0.000000e+00  
 -4.669845e-04 -2.705531e-03 0.000000e+00  
 -5.169795e-04 -2.738591e-03 0.000000e+00  
 -5.691706e-05 -2.616664e-03 0.000000e+00  
 -1.030522e-04 -2.650575e-03 0.000000e+00  
 4.602785e-04 -2.345746e-03 0.000000e+00  
 5.087426e-04 -2.296894e-03 0.000000e+00  
 3.899642e-04 -2.426750e-03 0.000000e+00  
 3.398992e-04 -2.457914e-03 0.000000e+00  
 3.003805e-04 -2.429709e-03 0.000000e+00  
 1.647391e-04 -2.468124e-03 0.000000e+00  
 2.122962e-04 -2.433968e-03 0.000000e+00  
 2.522191e-04 -2.462594e-03 0.000000e+00  
 3.871388e-04 -2.366944e-03 0.000000e+00  
 4.278784e-04 -2.334131e-03 0.000000e+00  
 3.153929e-05 -2.561214e-03 0.000000e+00  
 7.838798e-05 -2.526912e-03 0.000000e+00  
 -1.073429e-05 -2.528524e-03 0.000000e+00  
 -5.708518e-05 -2.562808e-03 0.000000e+00  
 7.692660e-05 -2.472682e-03 0.000000e+00  
 1.239927e-04 -2.437798e-03 0.000000e+00  
 6.470815e-04 -2.224109e-03 0.000000e+00  
 5.978033e-04 -2.249935e-03 0.000000e+00  
 5.520722e-04 -2.216470e-03 0.000000e+00  
 5.029222e-04 -2.256664e-03 0.000000e+00  
 6.447303e-04 -2.165606e-03 0.000000e+00  
 6.730041e-04 -2.143611e-03 0.000000e+00  
 7.241874e-04 -2.055437e-03 0.000000e+00  
 6.667364e-04 -2.070108e-03 0.000000e+00  
 7.349669e-04 -2.011827e-03 0.000000e+00  
 8.015699e-04 -2.011049e-03 0.000000e+00  
 8.179146e-04 -1.964659e-03 0.000000e+00  
 8.935668e-04 -1.967888e-03 0.000000e+00  
 -5.611494e-04 -2.705884e-03 0.000000e+00  
 -6.140581e-04 -2.739531e-03 0.000000e+00  
 -6.578506e-04 -2.706438e-03 0.000000e+00  
 -7.158277e-04 -2.741166e-03 0.000000e+00  
 -7.555058e-04 -2.709585e-03 0.000000e+00  
 -8.268279e-04 -2.747223e-03 0.000000e+00  
 -8.623516e-04 -2.703446e-03 0.000000e+00  
 -9.460900e-04 -2.717059e-03 0.000000e+00  
 -1.464859e-04 -2.617130e-03 0.000000e+00  
 -1.926197e-04 -2.650605e-03 0.000000e+00  
 -2.362782e-04 -2.617242e-03 0.000000e+00  
 -2.827776e-04 -2.649953e-03 0.000000e+00  
 -3.262793e-04 -2.617084e-03 0.000000e+00  
 -3.737960e-04 -2.649113e-03 0.000000e+00  
 -5.602790e-04 -2.649182e-03 0.000000e+00  
 -4.661106e-04 -2.648721e-03 0.000000e+00  
 -4.166695e-04 -2.617102e-03 0.000000e+00  
 -5.077302e-04 -2.617791e-03 0.000000e+00  
 -1.460564e-04 -2.563022e-03 0.000000e+00  
 -1.000861e-04 -2.529402e-03 0.000000e+00  
 4.118755e-04 -2.263179e-03 0.000000e+00  
 4.601868e-04 -2.227524e-03 0.000000e+00  
 2.965582e-04 -2.369930e-03 0.000000e+00  
 3.379814e-04 -2.338066e-03 0.000000e+00  
 1.214943e-04 -2.383413e-03 0.000000e+00  
 1.675914e-04 -2.348406e-03 0.000000e+00  
 2.531122e-04 -2.342895e-03 0.000000e+00  
 2.086770e-04 -2.376368e-03 0.000000e+00  
 3.339319e-04 -2.276101e-03 0.000000e+00  
 3.755941e-04 -2.244812e-03 0.000000e+00  
 -1.131325e-05 -2.475451e-03 0.000000e+00  
 3.513556e-05 -2.440576e-03 0.000000e+00  
 -5.401832e-05 -2.442152e-03 0.000000e+00  
 -9.978893e-05 -2.476206e-03 0.000000e+00  
 3.388750e-05 -2.388288e-03 0.000000e+00  
 8.009256e-05 -2.352790e-03 0.000000e+00  
 5.471407e-04 -2.171566e-03 0.000000e+00  
 5.882926e-04 -2.135612e-03 0.000000e+00  
 4.976213e-04 -2.139832e-03 0.000000e+00  
 4.535961e-04 -2.173187e-03 0.000000e+00  
 6.332141e-04 -2.044605e-03 0.000000e+00  
 5.808220e-04 -2.083865e-03 0.000000e+00  
 6.271979e-04 -2.012222e-03 0.000000e+00  
 7.096841e-04 -1.971682e-03 0.000000e+00  
 6.629666e-04 -1.963405e-03 0.000000e+00  
 7.346479e-04 -1.916149e-03 0.000000e+00  
 7.899686e-04 -1.921410e-03 0.000000e+00  
 8.100751e-04 -1.870921e-03 0.000000e+00  
 8.817376e-04 -1.875659e-03 0.000000e+00  
 -5.999971e-04 -2.619128e-03 0.000000e+00  
 -6.568908e-04 -2.649532e-03 0.000000e+00  
 -7.568128e-04 -2.648482e-03 0.000000e+00  
 -6.927503e-04 -2.621436e-03 0.000000e+00  
 -7.795342e-04 -2.630875e-03 0.000000e+00  
 -8.461568e-04 -2.647049e-03 0.000000e+00  
 -8.778902e-04 -2.606701e-03 0.000000e+00  
 -9.429524e-04 -2.607243e-03 0.000000e+00  
 -1.894052e-04 -2.529558e-03 0.000000e+00  
 -2.352740e-04 -2.561907e-03 0.000000e+00  
 -2.784564e-04 -2.529016e-03 0.000000e+00  
 -3.248683e-04 -2.560219e-03 0.000000e+00  
 -3.675313e-04 -2.528244e-03 0.000000e+00  
 -4.151267e-04 -2.558620e-03 0.000000e+00  
 -5.982246e-04 -2.558375e-03 0.000000e+00  
 -5.474893e-04 -2.528515e-03 0.000000e+00  
 -4.569801e-04 -2.527942e-03 0.000000e+00  
 -5.063028e-04 -2.557893e-03 0.000000e+00  
 -1.881854e-04 -2.474656e-03 0.000000e+00  
 -1.430060e-04 -2.442541e-03 0.000000e+00  
 4.104622e-04 -2.145760e-03 0.000000e+00  
 3.661686e-04 -2.180391e-03 0.000000e+00  
 2.478664e-04 -2.280335e-03 0.000000e+00  
 2.886680e-04 -2.249513e-03 0.000000e+00  
 1.632049e-04 -2.290953e-03 0.000000e+00  
 1.237226e-04 -2.264386e-03 0.000000e+00  
 7.764976e-05 -2.300341e-03 0.000000e+00  
 2.077306e-04 -2.257222e-03 0.000000e+00  
 2.844602e-04 -2.187017e-03 0.000000e+00  
 3.238854e-04 -2.156553e-03 0.000000e+00  
 -5.407313e-05 -2.390291e-03 0.000000e+00  
 -8.591263e-06 -2.355449e-03 0.000000e+00  
 -1.416712e-04 -2.388470e-03 0.000000e+00  
 -9.730497e-05 -2.356497e-03 0.000000e+00  
 3.602663e-05 -2.269048e-03 0.000000e+00  
 -9.330391e-06 -2.305296e-03 0.000000e+00  
 3.397458e-05 -2.221120e-03 0.000000e+00  
 5.362694e-04 -2.055076e-03 0.000000e+00  
 4.924085e-04 -2.083761e-03 0.000000e+00  
 4.037568e-04 -2.092204e-03 0.000000e+00  
 4.495188e-04 -2.055311e-03 0.000000e+00  
 5.315321e-04 -1.991904e-03 0.000000e+00  
 5.667695e-04 -1.971630e-03 0.000000e+00  
 5.728053e-04 -1.912573e-03 0.000000e+00  
 6.332229e-04 -1.908381e-03 0.000000e+00  
 6.482271e-04 -1.868993e-03 0.000000e+00  
 7.048909e-04 -1.869649e-03 0.000000e+00  
 7.223225e-04 -1.823735e-03 0.000000e+00  
 7.801313e-04 -1.826444e-03 0.000000e+00  
 7.975577e-04 -1.777574e-03 0.000000e+00  
 8.683562e-04 -1.782015e-03 0.000000e+00  
 -6.898319e-04 -2.557555e-03 0.000000e+00  
 -6.413629e-04 -2.528515e-03 0.000000e+00  
 -7.404670e-04 -2.526913e-03 0.000000e+00  
 -7.803661e-04 -2.554617e-03 0.000000e+00  
 -8.392760e-04 -2.535321e-03 0.000000e+00  
 -8.508403e-04 -2.509095e-03 0.000000e+00  
 -9.386494e-04 -2.505877e-03 0.000000e+00  
 -2.312280e-04 -2.441521e-03 0.000000e+00  
 -2.765625e-04 -2.471958e-03 0.000000e+00  
 -3.188679e-04 -2.439950e-03 0.000000e+00  
 -3.652208e-04 -2.469181e-03 0.000000e+00  
 -4.063585e-04 -2.438502e-03 0.000000e+00  
 -4.546680e-04 -2.466937e-03 0.000000e+00  
 -6.386775e-04 -2.468445e-03 0.000000e+00  
 -5.814535e-04 -2.439950e-03 0.000000e+00  
 -5.455625e-04 -2.466448e-03 0.000000e+00  
 -4.937659e-04 -2.438230e-03 0.000000e+00  
 -2.288503e-04 -2.384749e-03 0.000000e+00  
 -1.847778e-04 -2.354960e-03 0.000000e+00  
 3.181338e-04 -2.095979e-03 0.000000e+00  
 3.596923e-04 -2.063526e-03 0.000000e+00  
 1.996424e-04 -2.190525e-03 0.000000e+00  
 2.386378e-04 -2.160517e-03 0.000000e+00  
 1.644478e-04 -2.173159e-03 0.000000e+00  
 7.964416e-05 -2.182055e-03 0.000000e+00  
 1.185864e-04 -2.208946e-03 0.000000e+00  
 2.354362e-04 -2.098553e-03 0.000000e+00  
 2.730814e-04 -2.068522e-03 0.000000e+00  
 7.483475e-05 -2.137412e-03 0.000000e+00  
 -5.248961e-05 -2.271638e-03 0.000000e+00  
 -9.600427e-05 -2.303377e-03 0.000000e+00  
 -1.820391e-04 -2.299015e-03 0.000000e+00  
 -1.389306e-04 -2.269719e-03 0.000000e+00  
 -8.692554e-06 -2.188230e-03 0.000000e+00  
 -5.132357e-05 -2.219224e-03 0.000000e+00  
 -7.682516e-06 -2.135618e-03 0.000000e+00  
 3.447323e-05 -2.106632e-03 0.000000e+00  
 4.884056e-04 -1.965903e-03 0.000000e+00  
 4.423657e-04 -2.007415e-03 0.000000e+00  
 3.548264e-04 -2.009120e-03 0.000000e+00  
 3.969442e-04 -1.977198e-03 0.000000e+00  
 4.780481e-04 -1.922525e-03 0.000000e+00  
 5.450844e-04 -1.877548e-03 0.000000e+00  
 5.143364e-04 -1.875258e-03 0.000000e+00  
 6.195498e-04 -1.820478e-03 0.000000e+00  
 5.693987e-04 -1.817128e-03 0.000000e+00  
 6.931434e-04 -1.776964e-03 0.000000e+00  
 6.388798e-04 -1.773923e-03 0.000000e+00  
 7.107102e-04 -1.732288e-03 0.000000e+00  
 7.684274e-04 -1.736066e-03 0.000000e+00  
 7.843275e-04 -1.683931e-03 0.000000e+00  
 8.536917e-04 -1.689341e-03 0.000000e+00  
 -7.369670e-04 -2.469082e-03 0.000000e+00  
 -6.720010e-04 -2.441419e-03 0.000000e+00  
 -7.652185e-04 -2.442730e-03 0.000000e+00  
 -8.298821e-04 -2.458071e-03 0.000000e+00  
 -8.603030e-04 -2.408868e-03 0.000000e+00  
 -9.338875e-04 -2.417005e-03 0.000000e+00  
 -2.714333e-04 -2.352243e-03 0.000000e+00  
 -3.158403e-04 -2.380359e-03 0.000000e+00  
 -3.572952e-04 -2.349592e-03 0.000000e+00  
 -4.029323e-04 -2.376481e-03 0.000000e+00  
 -4.906609e-04 -2.373393e-03 0.000000e+00  
 -4.427894e-04 -2.347451e-03 0.000000e+00  
 -6.686287e-04 -2.376177e-03 0.000000e+00  
 -5.794975e-04 -2.373147e-03 0.000000e+00  
 -6.107706e-04 -2.351148e-03 0.000000e+00  
 -5.272177e-04 -2.347561e-03 0.000000e+00  
 -2.676232e-04 -2.293313e-03 0.000000e+00  
 -2.247678e-04 -2.265766e-03 0.000000e+00  
 3.118757e-04 -1.979937e-03 0.000000e+00  
 2.694450e-04 -2.011280e-03 0.000000e+00  
 1.495708e-04 -2.100511e-03 0.000000e+00  
 1.864999e-04 -2.070110e-03 0.000000e+00  
 1.227842e-04 -2.091405e-03 0.000000e+00  
 1.853695e-04 -2.010630e-03 0.000000e+00  
 2.271651e-04 -1.981832e-03 0.000000e+00  
 9.470709e-05 -2.025504e-03 0.000000e+00  
 3.544388e-05 -2.053535e-03 0.000000e+00  
 -1.360770e-04 -2.214438e-03 0.000000e+00  
 -9.337998e-05 -2.185874e-03 0.000000e+00  
 -1.776652e-04 -2.181162e-03 0.000000e+00  
 -2.205527e-04 -2.208568e-03 0.000000e+00  
 -4.716923e-05 -2.103339e-03 0.000000e+00  
 -9.049863e-05 -2.130663e-03 0.000000e+00  
 -4.439857e-05 -2.048079e-03 0.000000e+00  
 5.409330e-06 -2.021601e-03 0.000000e+00  
 3.922779e-04 -1.921837e-03 0.000000e+00  
 4.278490e-04 -1.896220e-03 0.000000e+00  
 3.077896e-04 -1.924896e-03 0.000000e+00  
 3.500037e-04 -1.894427e-03 0.000000e+00  
 4.234084e-04 -1.828548e-03 0.000000e+00  
 4.736672e-04 -1.814518e-03 0.000000e+00  
 4.860232e-04 -1.774071e-03 0.000000e+00  
 5.395916e-04 -1.771468e-03 0.000000e+00  
 8.371443e-04 -1.594543e-03 0.000000e+00  
 6.099001e-04 -1.725823e-03 0.000000e+00  
 5.553640e-04 -1.724281e-03 0.000000e+00  
 6.266241e-04 -1.681509e-03 0.000000e+00  
 6.816690e-04 -1.684189e-03 0.000000e+00  
 6.973517e-04 -1.644734e-03 0.000000e+00  
 7.687103e-04 -1.591210e-03 0.000000e+00  
 7.579038e-04 -1.649193e-03 0.000000e+00  
 -7.552379e-04 -2.371782e-03 0.000000e+00  
 -6.988884e-04 -2.352673e-03 0.000000e+00  
 -7.829936e-04 -2.349210e-03 0.000000e+00  
 -8.364232e-04 -2.360893e-03 0.000000e+00  
 -8.698999e-04 -2.310432e-03 0.000000e+00  
 -9.269233e-04 -2.311694e-03 0.000000e+00  
 8.197290e-04 -1.503872e-03 0.000000e+00  
 -6.916520e-04 -2.285766e-03 0.000000e+00  
 -3.103002e-04 -2.261199e-03 0.000000e+00  
 -3.528937e-04 -2.287091e-03 0.000000e+00  
 -4.379037e-04 -2.282304e-03 0.000000e+00  
 -3.947507e-04 -2.257472e-03 0.000000e+00  
 -4.794052e-04 -2.254144e-03 0.000000e+00  
 -5.232745e-04 -2.278359e-03 0.000000e+00  
 -6.467071e-04 -2.259332e-03 0.000000e+00  
 -6.091509e-04 -2.280123e-03 0.000000e+00  
 -5.625270e-04 -2.254548e-03 0.000000e+00  
 -2.627242e-04 -2.175015e-03 0.000000e+00  
 -3.048253e-04 -2.201009e-03 0.000000e+00  
 2.670634e-04 -1.896110e-03 0.000000e+00  
 2.253943e-04 -1.923168e-03 0.000000e+00  
 1.003134e-04 -2.003171e-03 0.000000e+00  
 1.426780e-04 -1.979031e-03 0.000000e+00  
 1.465050e-04 -1.916689e-03 0.000000e+00  
 1.856054e-04 -1.893736e-03 0.000000e+00  
 5.825654e-05 -1.944872e-03 0.000000e+00  
 8.594947e-06 -1.973075e-03 0.000000e+00  
 -1.736053e-04 -2.124848e-03 0.000000e+00  
 -1.295665e-04 -2.097888e-03 0.000000e+00  
 -2.570977e-04 -2.118395e-03 0.000000e+00  
 -2.129645e-04 -2.091714e-03 0.000000e+00  
 -7.824835e-05 -2.015720e-03 0.000000e+00  
 -1.257328e-04 -2.042306e-03 0.000000e+00  
 -7.467399e-05 -1.963164e-03 0.000000e+00  
 -2.623521e-05 -1.936112e-03 0.000000e+00  
 3.962925e-04 -1.806486e-03 0.000000e+00  
 3.443020e-04 -1.839613e-03 0.000000e+00  
 2.648530e-04 -1.837311e-03 0.000000e+00  
 3.082565e-04 -1.811813e-03 0.000000e+00  
 3.888608e-04 -1.762981e-03 0.000000e+00  
 4.562315e-04 -1.724942e-03 0.000000e+00  
 4.242960e-04 -1.720335e-03 0.000000e+00  
 5.276902e-04 -1.678797e-03 0.000000e+00  
 4.832382e-04 -1.674404e-03 0.000000e+00  
 7.422428e-04 -1.561902e-03 0.000000e+00  
 7.387541e-04 -1.518275e-03 0.000000e+00  
 7.615664e-04 -1.495078e-03 0.000000e+00  
 5.974953e-04 -1.633771e-03 0.000000e+00  
 6.137816e-04 -1.592274e-03 0.000000e+00  
 5.481058e-04 -1.631107e-03 0.000000e+00  
 6.680561e-04 -1.591266e-03 0.000000e+00  
 6.757460e-04 -1.572150e-03 0.000000e+00  
 -7.462781e-04 -2.254456e-03 0.000000e+00  