# vtk DataFile Version 1.0 
PolyMesh 
ASCII 
 
DATASET POLYDATA 
 
POINTS 248 float 
0.000000e+00 -2.000000e+00 0.000000e+00  
 -0.000000e+00 -1.646075e+00 0.000000e+00  
 -0.000000e+00 -9.191894e-01 0.000000e+00  
 -0.000000e+00 -1.897079e-01 0.000000e+00  
 -0.000000e+00 5.429183e-01 0.000000e+00  
 -0.000000e+00 1.278739e+00 0.000000e+00  
 0.000000e+00 2.000000e+00 0.000000e+00  
 0.000000e+00 -1.282884e+00 0.000000e+00  
 0.000000e+00 -5.549807e-01 0.000000e+00  
 0.000000e+00 1.641248e+00 0.000000e+00  
 0.000000e+00 1.761402e-01 0.000000e+00  
 0.000000e+00 9.115438e-01 0.000000e+00  
 3.219971e-01 9.076606e-01 0.000000e+00  
 3.222990e-01 1.761283e-01 0.000000e+00  
 3.227375e-01 -5.546179e-01 0.000000e+00  
 3.232484e-01 -1.282908e+00 0.000000e+00  
 3.360751e-01 2.000000e+00 0.000000e+00  
 3.499579e-01 -2.000000e+00 0.000000e+00  
 3.627783e-01 1.617522e+00 0.000000e+00  
 4.441717e-01 -1.898727e-01 0.000000e+00  
 4.447766e-01 -9.186759e-01 0.000000e+00  
 4.461660e-01 5.406278e-01 0.000000e+00  
 4.519237e-01 -1.642335e+00 0.000000e+00  
 4.609395e-01 1.263628e+00 0.000000e+00  
 6.757431e-01 2.000000e+00 0.000000e+00  
 7.028262e-01 -5.543844e-01 0.000000e+00  
 7.029044e-01 1.734846e-01 0.000000e+00  
 7.060760e-01 -1.278995e+00 0.000000e+00  
 7.093508e-01 8.988788e-01 0.000000e+00  
 7.340880e-01 -2.000000e+00 0.000000e+00  
 7.547231e-01 1.620190e+00 0.000000e+00  
 8.765019e-01 -1.911094e-01 0.000000e+00  
 8.779535e-01 -9.164297e-01 0.000000e+00  
 8.806766e-01 5.348785e-01 0.000000e+00  
 8.875853e-01 -1.638166e+00 0.000000e+00  
 8.997627e-01 1.258482e+00 0.000000e+00  
 1.035476e+00 2.000000e+00 0.000000e+00  
 1.106067e+00 -5.538327e-01 0.000000e+00  
 1.106949e+00 1.705514e-01 0.000000e+00  
 1.110798e+00 -1.276392e+00 0.000000e+00  
 1.116406e+00 8.950124e-01 0.000000e+00  
 1.132624e+00 -2.000000e+00 0.000000e+00  
 1.156838e+00 1.621569e+00 0.000000e+00  
 1.300730e+00 -1.920808e-01 0.000000e+00  
 1.302302e+00 -9.149090e-01 0.000000e+00  
 1.305567e+00 5.319387e-01 0.000000e+00  
 1.311366e+00 -1.636953e+00 0.000000e+00  
 1.324516e+00 1.257210e+00 0.000000e+00  
 1.410691e+00 2.000000e+00 0.000000e+00  
 1.517871e+00 -5.535560e-01 0.000000e+00  
 1.519078e+00 1.693472e-01 0.000000e+00  
 1.522322e+00 -1.275489e+00 0.000000e+00  
 1.528772e+00 8.938352e-01 0.000000e+00  
 1.537784e+00 -2.000000e+00 0.000000e+00  
 1.561479e+00 1.624041e+00 0.000000e+00  
 1.720616e+00 -1.922635e-01 0.000000e+00  
 1.721892e+00 -9.144234e-01 0.000000e+00  
 1.725234e+00 5.312976e-01 0.000000e+00  
 1.729153e+00 -1.636892e+00 0.000000e+00  
 1.741544e+00 1.258279e+00 0.000000e+00  
 1.796916e+00 2.000000e+00 0.000000e+00  
 1.932246e+00 -5.533433e-01 0.000000e+00  
 1.933525e+00 1.694128e-01 0.000000e+00  
 1.935752e+00 -1.275424e+00 0.000000e+00  
 1.941915e+00 8.946217e-01 0.000000e+00  
 1.946180e+00 -2.000000e+00 0.000000e+00  
 1.966879e+00 1.626403e+00 0.000000e+00  
 2.137919e+00 -1.919315e-01 0.000000e+00  
 2.138779e+00 -9.143174e-01 0.000000e+00  
 2.141807e+00 5.320772e-01 0.000000e+00  
 2.144080e+00 -1.637158e+00 0.000000e+00  
 2.154708e+00 1.260125e+00 0.000000e+00  
 2.190465e+00 2.000000e+00 0.000000e+00  
 2.346894e+00 -5.530714e-01 0.000000e+00  
 2.348043e+00 1.701928e-01 0.000000e+00  
 2.349384e+00 -1.275588e+00 0.000000e+00  
 2.354636e+00 8.961518e-01 0.000000e+00  
 2.356163e+00 -2.000000e+00 0.000000e+00  
 2.372758e+00 1.628375e+00 0.000000e+00  
 2.553425e+00 -1.913306e-01 0.000000e+00  
 2.553941e+00 -9.142728e-01 0.000000e+00  
 2.556419e+00 5.333390e-01 0.000000e+00  
 2.557548e+00 -1.637432e+00 0.000000e+00  
 2.565931e+00 1.261987e+00 0.000000e+00  
 2.588797e+00 2.000000e+00 0.000000e+00  
 2.761016e+00 -5.527428e-01 0.000000e+00  
 2.761928e+00 1.711523e-01 0.000000e+00  
 2.762650e+00 -1.275747e+00 0.000000e+00  
 2.766694e+00 8.977170e-01 0.000000e+00  
 2.766872e+00 -2.000000e+00 0.000000e+00  
 2.779094e+00 1.629876e+00 0.000000e+00  
 2.967630e+00 -1.907146e-01 0.000000e+00  
 2.967909e+00 -9.142071e-01 0.000000e+00  
 2.969723e+00 5.345429e-01 0.000000e+00  
 2.970182e+00 -1.637632e+00 0.000000e+00  
 2.976159e+00 1.263511e+00 0.000000e+00  
 2.990188e+00 2.000000e+00 0.000000e+00  
 3.174465e+00 -5.524431e-01 0.000000e+00  
 3.175091e+00 1.719744e-01 0.000000e+00  
 3.175434e+00 -1.275845e+00 0.000000e+00  
 3.177862e+00 -2.000000e+00 0.000000e+00  
 3.178155e+00 8.989643e-01 0.000000e+00  
 3.185825e+00 1.630912e+00 0.000000e+00  
 3.380935e+00 -1.902434e-01 0.000000e+00  
 3.381064e+00 -9.141393e-01 0.000000e+00  
 3.382165e+00 5.354275e-01 0.000000e+00  
 3.382303e+00 -1.637751e+00 0.000000e+00  
 3.385865e+00 1.264558e+00 0.000000e+00  
 3.393448e+00 2.000000e+00 0.000000e+00  
 3.587377e+00 -5.522406e-01 0.000000e+00  
 3.587695e+00 1.725060e-01 0.000000e+00  
 3.587824e+00 -1.275893e+00 0.000000e+00  
 3.588928e+00 -2.000000e+00 0.000000e+00  
 3.589188e+00 8.997452e-01 0.000000e+00  
 3.592840e+00 1.631515e+00 0.000000e+00  
 3.793704e+00 -1.899940e-01 0.000000e+00  
 3.793741e+00 -9.140979e-01 0.000000e+00  
 3.794109e+00 5.358866e-01 0.000000e+00  
 3.794133e+00 -1.637805e+00 0.000000e+00  
 3.795314e+00 1.265085e+00 0.000000e+00  
 3.797711e+00 2.000000e+00 0.000000e+00  
 4.000000e+00 -5.521699e-01 0.000000e+00  
 4.000000e+00 1.726880e-01 0.000000e+00  
 4.000000e+00 1.631713e+00 0.000000e+00  
 4.000000e+00 9.000092e-01 0.000000e+00  
 4.000000e+00 -1.275907e+00 0.000000e+00  
 4.000000e+00 -2.000000e+00 0.000000e+00  
 4.202289e+00 2.000000e+00 0.000000e+00  
 4.204686e+00 1.265085e+00 0.000000e+00  
 4.205867e+00 -1.637805e+00 0.000000e+00  
 4.205891e+00 5.358866e-01 0.000000e+00  
 4.206259e+00 -9.140979e-01 0.000000e+00  
 4.206296e+00 -1.899940e-01 0.000000e+00  
 4.407160e+00 1.631515e+00 0.000000e+00  
 4.410812e+00 8.997452e-01 0.000000e+00  
 4.411072e+00 -2.000000e+00 0.000000e+00  
 4.412176e+00 -1.275893e+00 0.000000e+00  
 4.412305e+00 1.725060e-01 0.000000e+00  
 4.412623e+00 -5.522406e-01 0.000000e+00  
 4.606552e+00 2.000000e+00 0.000000e+00  
 4.614135e+00 1.264558e+00 0.000000e+00  
 4.617697e+00 -1.637751e+00 0.000000e+00  
 4.617835e+00 5.354275e-01 0.000000e+00  
 4.618936e+00 -9.141393e-01 0.000000e+00  
 4.619065e+00 -1.902434e-01 0.000000e+00  
 4.814175e+00 1.630912e+00 0.000000e+00  
 4.821845e+00 8.989643e-01 0.000000e+00  
 4.822138e+00 -2.000000e+00 0.000000e+00  
 4.824566e+00 -1.275845e+00 0.000000e+00  
 4.824909e+00 1.719744e-01 0.000000e+00  
 4.825535e+00 -5.524431e-01 0.000000e+00  
 5.009811e+00 2.000000e+00 0.000000e+00  
 5.023841e+00 1.263511e+00 0.000000e+00  
 5.029818e+00 -1.637632e+00 0.000000e+00  
 5.030277e+00 5.345429e-01 0.000000e+00  
 5.032091e+00 -9.142071e-01 0.000000e+00  
 5.032370e+00 -1.907146e-01 0.000000e+00  
 5.220906e+00 1.629876e+00 0.000000e+00  
 5.233128e+00 -2.000000e+00 0.000000e+00  
 5.233306e+00 8.977170e-01 0.000000e+00  
 5.237350e+00 -1.275747e+00 0.000000e+00  
 5.238072e+00 1.711523e-01 0.000000e+00  
 5.238984e+00 -5.527428e-01 0.000000e+00  
 5.411203e+00 2.000000e+00 0.000000e+00  
 5.434069e+00 1.261987e+00 0.000000e+00  
 5.442452e+00 -1.637432e+00 0.000000e+00  
 5.443581e+00 5.333390e-01 0.000000e+00  
 5.446059e+00 -9.142728e-01 0.000000e+00  
 5.446575e+00 -1.913306e-01 0.000000e+00  
 5.627242e+00 1.628375e+00 0.000000e+00  
 5.643837e+00 -2.000000e+00 0.000000e+00  
 5.645364e+00 8.961518e-01 0.000000e+00  
 5.650616e+00 -1.275588e+00 0.000000e+00  
 5.651957e+00 1.701928e-01 0.000000e+00  
 5.653106e+00 -5.530714e-01 0.000000e+00  
 5.809535e+00 2.000000e+00 0.000000e+00  
 5.845292e+00 1.260125e+00 0.000000e+00  
 5.855920e+00 -1.637158e+00 0.000000e+00  
 5.858193e+00 5.320772e-01 0.000000e+00  
 5.861221e+00 -9.143174e-01 0.000000e+00  
 5.862081e+00 -1.919315e-01 0.000000e+00  
 6.033121e+00 1.626403e+00 0.000000e+00  
 6.053820e+00 -2.000000e+00 0.000000e+00  
 6.058085e+00 8.946217e-01 0.000000e+00  
 6.064248e+00 -1.275424e+00 0.000000e+00  
 6.066475e+00 1.694128e-01 0.000000e+00  
 6.067754e+00 -5.533433e-01 0.000000e+00  
 6.203084e+00 2.000000e+00 0.000000e+00  
 6.258456e+00 1.258279e+00 0.000000e+00  
 6.270847e+00 -1.636892e+00 0.000000e+00  
 6.274766e+00 5.312976e-01 0.000000e+00  
 6.278108e+00 -9.144234e-01 0.000000e+00  
 6.279384e+00 -1.922635e-01 0.000000e+00  
 6.438521e+00 1.624041e+00 0.000000e+00  
 6.462216e+00 -2.000000e+00 0.000000e+00  
 6.471228e+00 8.938352e-01 0.000000e+00  
 6.477678e+00 -1.275489e+00 0.000000e+00  
 6.480922e+00 1.693472e-01 0.000000e+00  
 6.482129e+00 -5.535560e-01 0.000000e+00  
 6.589309e+00 2.000000e+00 0.000000e+00  
 6.675484e+00 1.257210e+00 0.000000e+00  
 6.688634e+00 -1.636953e+00 0.000000e+00  
 6.694433e+00 5.319387e-01 0.000000e+00  
 6.697698e+00 -9.149090e-01 0.000000e+00  
 6.699270e+00 -1.920808e-01 0.000000e+00  
 6.843162e+00 1.621569e+00 0.000000e+00  
 6.867376e+00 -2.000000e+00 0.000000e+00  
 6.883594e+00 8.950124e-01 0.000000e+00  
 6.889202e+00 -1.276392e+00 0.000000e+00  
 6.893051e+00 1.705514e-01 0.000000e+00  
 6.893933e+00 -5.538327e-01 0.000000e+00  
 6.964524e+00 2.000000e+00 0.000000e+00  
 7.100237e+00 1.258482e+00 0.000000e+00  
 7.112415e+00 -1.638166e+00 0.000000e+00  
 7.119323e+00 5.348785e-01 0.000000e+00  
 7.122046e+00 -9.164297e-01 0.000000e+00  
 7.123498e+00 -1.911094e-01 0.000000e+00  
 7.245277e+00 1.620190e+00 0.000000e+00  
 7.265912e+00 -2.000000e+00 0.000000e+00  
 7.290649e+00 8.988788e-01 0.000000e+00  
 7.293924e+00 -1.278995e+00 0.000000e+00  
 7.297096e+00 1.734846e-01 0.000000e+00  
 7.297174e+00 -5.543844e-01 0.000000e+00  
 7.324257e+00 2.000000e+00 0.000000e+00  
 7.539061e+00 1.263628e+00 0.000000e+00  
 7.548076e+00 -1.642335e+00 0.000000e+00  
 7.553834e+00 5.406278e-01 0.000000e+00  
 7.555223e+00 -9.186759e-01 0.000000e+00  
 7.555828e+00 -1.898727e-01 0.000000e+00  
 7.637222e+00 1.617522e+00 0.000000e+00  
 7.650042e+00 -2.000000e+00 0.000000e+00  
 7.663925e+00 2.000000e+00 0.000000e+00  
 7.676752e+00 -1.282908e+00 0.000000e+00  
 7.677262e+00 -5.546179e-01 0.000000e+00  
 7.677701e+00 1.761283e-01 0.000000e+00  
 7.678003e+00 9.076606e-01 0.000000e+00  
 8.000000e+00 9.115438e-01 0.000000e+00  
 8.000000e+00 1.761402e-01 0.000000e+00  
 8.000000e+00 -5.549807e-01 0.000000e+00  
 8.000000e+00 -1.282884e+00 0.000000e+00  
 8.000000e+00 1.641248e+00 0.000000e+00  
 8.000000e+00 -9.191894e-01 0.000000e+00  
 8.000000e+00 -1.897079e-01 0.000000e+00  
 8.000000e+00 5.429183e-01 0.000000e+00  
 8.000000e+00 -1.646075e+00 0.000000e+00  
 8.000000e+00 1.278739e+00 0.000000e+00  
 8.000000e+00 -2.000000e+00 0.000000e+00  
 8.000000e+00 2.000000e+00 0.000000e+00  
  
 POLYGONS 431 1724 
 3 0  17  1   
 3 7  1  15   
 3 2  7  15   
 3 120  108  114   
 3 70  77  82   
 3 132  144  137   
 3 138  144  132   
 3 172  177  184   
 3 165  177  172   
 3 223  211  217   
 3 217  211  205   
 3 200  195  207   
 3 65  77  70   
 3 46  41  53   
 3 118  112  126   
 3 126  129  118   
 3 2  15  20   
 3 20  15  27   
 3 128  133  123   
 3 133  127  123   
 3 120  114  123   
 3 123  127  120   
 3 89  82  77   
 3 80  85  73   
 3 101  93  105   
 3 119  124  128   
 3 128  123  119   
 3 119  123  114   
 3 128  124  134   
 3 137  142  130   
 3 142  134  130   
 3 130  134  124   
 3 184  177  189   
 3 189  177  182   
 3 184  189  196   
 3 196  189  201   
 3 221  226  214   
 3 217  224  229   
 3 229  223  217   
 3 245  240  229   
 3 229  224  245   
 3 235  243  236   
 3 226  243  235   
 3 236  245  235   
 3 245  224  235   
 3 122  132  137   
 3 137  130  122   
 3 138  132  121   
 3 121  131  138   
 3 138  131  143   
 3 165  172  160   
 3 160  153  165   
 3 135  129  126   
 3 199  205  211   
 3 175  163  169   
 3 175  181  187   
 3 169  181  175   
 3 188  195  200   
 3 212  224  217   
 3 200  207  212   
 3 217  205  212   
 3 212  205  200   
 3 171  178  183   
 3 195  188  183   
 3 183  190  195   
 3 178  190  183   
 3 58  46  53   
 3 58  65  70   
 3 53  65  58   
 3 125  118  129   
 3 14  20  25   
 3 2  20  14   
 3 32  20  27   
 3 25  20  32   
 3 139  127  133   
 3 151  139  145   
 3 145  139  133   
 3 164  159  171   
 3 152  159  164   
 3 85  97  91   
 3 80  87  92   
 3 92  85  80   
 3 104  97  92   
 3 92  97  85   
 3 104  92  99   
 3 99  92  87   
 3 74  62  67   
 3 88  93  101   
 3 81  93  88   
 3 95  88  101   
 3 83  88  95   
 3 62  57  50   
 3 101  105  113   
 3 124  119  113   
 3 225  232  220   
 3 241  232  239   
 3 208  196  201   
 3 194  189  182   
 3 201  189  194   
 3 194  206  201   
 3 201  206  213   
 3 220  208  213   
 3 213  208  201   
 3 213  225  220   
 3 226  221  234   
 3 237  243  234   
 3 234  243  226   
 3 234  242  237   
 3 223  229  231   
 3 231  240  247   
 3 231  229  240   
 3 150  144  138   
 3 150  143  155   
 3 138  143  150   
 3 180  168  174   
 3 173  168  180   
 3 168  173  161   
 3 117  122  130   
 3 117  113  105   
 3 117  105  110   
 3 110  122  117   
 3 117  130  124   
 3 124  113  117   
 3 131  121  116   
 3 116  125  131   
 3 103  91  97   
 3 153  160  148   
 3 155  143  148   
 3 148  160  155   
 3 165  153  158   
 3 200  205  193   
 3 193  188  200   
 3 181  188  193   
 3 205  199  193   
 3 187  181  193   
 3 193  199  187   
 3 219  212  207   
 3 219  207  214   
 3 219  235  224   
 3 224  212  219   
 3 214  226  219   
 3 226  235  219   
 3 146  159  152   
 3 146  134  142   
 3 17  29  22   
 3 27  15  22   
 3 22  1  17   
 3 22  15  1   
 3 41  46  34   
 3 34  29  41   
 3 27  22  34   
 3 34  22  29   
 3 75  87  80   
 3 70  82  75   
 3 82  87  75   
 3 27  34  39   
 3 39  34  46   
 3 39  32  27   
 3 44  32  39   
 3 25  32  37   
 3 37  32  44   
 3 2  14  8   
 3 8  14  3   
 3 152  145  140   
 3 128  134  140   
 3 140  133  128   
 3 140  145  133   
 3 140  146  152   
 3 134  146  140   
 3 157  163  151   
 3 151  145  157   
 3 169  163  157   
 3 157  145  152   
 3 157  164  169   
 3 152  164  157   
 3 176  188  181   
 3 176  181  169   
 3 169  164  176   
 3 176  164  171   
 3 171  183  176   
 3 176  183  188   
 3 110  105  98   
 3 98  105  93   
 3 98  103  110   
 3 91  103  98   
 3 79  73  85   
 3 85  91  79   
 3 79  67  73   
 3 74  67  79   
 3 118  125  111   
 3 104  99  111   
 3 111  116  104   
 3 125  116  111   
 3 112  118  106   
 3 118  111  106   
 3 106  111  99   
 3 73  67  61   
 3 81  88  76   
 3 76  88  83   
 3 107  119  114   
 3 107  113  119   
 3 107  95  101   
 3 101  113  107   
 3 78  83  90   
 3 83  95  90   
 3 5  18  9   
 3 9  16  6   
 3 9  18  16   
 3 12  5  11   
 3 12  11  4   
 3 33  26  38   
 3 43  50  38   
 3 78  72  66   
 3 244  230  246   
 3 244  225  230   
 3 232  225  244   
 3 244  239  232   
 3 230  225  218   
 3 225  213  218   
 3 218  213  206   
 3 242  233  238   
 3 238  233  241   
 3 242  234  228   
 3 228  233  242   
 3 228  221  216   
 3 228  234  221   
 3 216  222  228   
 3 222  233  228   
 3 227  232  241   
 3 241  233  227   
 3 220  232  227   
 3 227  233  222   
 3 144  150  156   
 3 168  161  156   
 3 155  160  167   
 3 167  160  172   
 3 162  174  168   
 3 168  156  162   
 3 162  156  150   
 3 162  150  155   
 3 155  167  162   
 3 162  167  174   
 3 149  142  137   
 3 137  144  149   
 3 144  156  149   
 3 149  156  161   
 3 154  146  142   
 3 159  146  154   
 3 142  149  154   
 3 154  149  161   
 3 166  173  178   
 3 166  161  173   
 3 166  154  161   
 3 166  178  171   
 3 171  159  166   
 3 159  154  166   
 3 104  116  109   
 3 109  116  121   
 3 109  97  104   
 3 109  103  97   
 3 153  148  141   
 3 129  135  141   
 3 165  158  170   
 3 182  177  170   
 3 170  177  165   
 3 185  173  180   
 3 185  197  190   
 3 185  190  178   
 3 178  173  185   
 3 190  197  202   
 3 202  207  195   
 3 195  190  202   
 3 214  207  202   
 3 180  174  186   
 3 204  197  192   
 3 192  198  204   
 3 192  185  180   
 3 197  185  192   
 3 180  186  192   
 3 192  186  198   
 3 196  208  203   
 3 44  39  51   
 3 46  58  51   
 3 51  39  46   
 3 13  10  3   
 3 4  10  13   
 3 25  37  31   
 3 31  37  43   
 3 43  38  31   
 3 31  38  26   
 3 91  98  86   
 3 74  79  86   
 3 86  79  91   
 3 86  81  74   
 3 86  93  81   
 3 86  98  93   
 3 112  106  100   
 3 82  89  94   
 3 94  87  82   
 3 89  100  94   
 3 94  100  106   
 3 94  99  87   
 3 94  106  99   
 3 49  37  44   
 3 43  37  49   
 3 71  76  83   
 3 71  66  59   
 3 71  83  78   
 3 78  66  71   
 3 95  107  102   
 3 102  90  95   
 3 102  107  114   
 3 102  96  90   
 3 102  114  108   
 3 108  96  102   
 3 23  18  5   
 3 5  12  23   
 3 16  18  24   
 3 59  66  54   
 3 33  38  45   
 3 57  52  45   
 3 45  50  57   
 3 45  38  50   
 3 47  52  59   
 3 47  54  42   
 3 59  54  47   
 3 42  35  47   
 3 81  76  69   
 3 74  81  69   
 3 69  62  74   
 3 69  57  62   
 3 59  52  64   
 3 64  71  59   
 3 76  71  64   
 3 64  69  76   
 3 64  52  57   
 3 57  69  64   
 3 220  227  215   
 3 215  227  222   
 3 215  208  220   
 3 215  203  208   
 3 103  109  115   
 3 110  103  115   
 3 115  121  132   
 3 115  109  121   
 3 115  122  110   
 3 132  122  115   
 3 136  141  148   
 3 136  148  143   
 3 136  125  129   
 3 129  141  136   
 3 136  143  131   
 3 131  125  136   
 3 147  141  135   
 3 147  158  153   
 3 153  141  147   
 3 209  197  204   
 3 209  202  197   
 3 216  221  209   
 3 209  204  216   
 3 209  221  214   
 3 214  202  209   
 3 174  167  179   
 3 179  186  174   
 3 179  172  184   
 3 179  167  172   
 3 204  198  210   
 3 198  203  210   
 3 210  222  216   
 3 216  204  210   
 3 210  215  222   
 3 203  215  210   
 3 68  75  80   
 3 80  73  68   
 3 73  61  68   
 3 21  12  4   
 3 4  13  21   
 3 21  26  33   
 3 21  13  26   
 3 26  13  19   
 3 19  31  26   
 3 3  14  19   
 3 19  13  3   
 3 19  14  25   
 3 25  31  19   
 3 55  61  67   
 3 55  49  61   
 3 55  67  62   
 3 62  50  55   
 3 55  50  43   
 3 43  49  55   
 3 90  96  84   
 3 84  72  78   
 3 78  90  84   
 3 42  36  30   
 3 36  24  30   
 3 30  35  42   
 3 30  24  18   
 3 18  23  30   
 3 23  35  30   
 3 60  66  72   
 3 60  54  66   
 3 48  36  42   
 3 42  54  48   
 3 54  60  48   
 3 28  21  33   
 3 12  21  28   
 3 28  23  12   
 3 28  35  23   
 3 198  186  191   
 3 186  179  191   
 3 196  203  191   
 3 191  203  198   
 3 184  196  191   
 3 191  179  184   
 3 44  51  56   
 3 56  49  44   
 3 61  49  56   
 3 56  68  61   
 3 70  75  63   
 3 75  68  63   
 3 63  58  70   
 3 63  51  58   
 3 63  56  51   
 3 68  56  63   
 3 40  47  35   
 3 35  28  40   
 3 52  47  40   
 3 40  45  52   
 3 33  45  40   
 3 40  28  33   
  
 POINT_DATA 248 
 VECTORS Displacement float 
 1.397500e-04 -1.170000e-04 0.000000e+00  
 1.296895e-04 -7.925473e-05 0.000000e+00  
 8.425735e-05 -2.471359e-05 0.000000e+00  
 1.844937e-05 -1.052681e-06 0.000000e+00  
 -5.182932e-05 -8.621737e-06 0.000000e+00  
 -1.102364e-04 -4.782885e-05 0.000000e+00  
 -1.397500e-04 -1.170000e-04 0.000000e+00  
 1.104996e-04 -4.813942e-05 0.000000e+00  
 5.293009e-05 -9.009106e-06 0.000000e+00  
 -1.294890e-04 -7.879056e-05 0.000000e+00  
 -1.713593e-05 -9.074922e-07 0.000000e+00  
 -8.364464e-05 -2.430418e-05 0.000000e+00  
 -4.455955e-05 -2.832002e-05 0.000000e+00  
 -9.613502e-06 -6.020902e-06 0.000000e+00  
 2.916609e-05 -1.376291e-05 0.000000e+00  
 5.561914e-05 -5.125712e-05 0.000000e+00  
 -5.188012e-05 -1.178920e-04 0.000000e+00  
 4.902340e-05 -1.178567e-04 0.000000e+00  
 -5.170931e-05 -8.058551e-05 0.000000e+00  
 7.402328e-06 -1.256829e-05 0.000000e+00  
 3.058236e-05 -3.482256e-05 0.000000e+00  
 -1.992150e-05 -1.981493e-05 0.000000e+00  
 3.263001e-05 -8.597887e-05 0.000000e+00  
 -3.307850e-05 -5.660410e-05 0.000000e+00  
 3.302014e-05 -1.343325e-04 0.000000e+00  
 2.559667e-06 -3.879600e-05 0.000000e+00  
 -1.106272e-06 -3.150566e-05 0.000000e+00  
 -6.113704e-06 -7.416752e-05 0.000000e+00  
 -3.777463e-07 -5.277092e-05 0.000000e+00  
 -4.759272e-05 -1.385759e-04 0.000000e+00  
 2.795010e-05 -1.046455e-04 0.000000e+00  
 -2.773887e-06 -4.925649e-05 0.000000e+00  
 -1.849768e-05 -7.007021e-05 0.000000e+00  
 8.960536e-06 -5.619668e-05 0.000000e+00  
 -5.522612e-05 -1.183470e-04 0.000000e+00  
 3.498600e-05 -9.167678e-05 0.000000e+00  
 1.194704e-04 -1.678674e-04 0.000000e+00  
 -2.408369e-05 -8.460728e-05 0.000000e+00  
 7.120731e-06 -7.785048e-05 0.000000e+00  
 -6.757999e-05 -1.180518e-04 0.000000e+00  
 4.296905e-05 -9.836470e-05 0.000000e+00  
 -1.427095e-04 -1.796753e-04 0.000000e+00  
 1.052870e-04 -1.490429e-04 0.000000e+00  
 -1.227093e-05 -1.070334e-04 0.000000e+00  
 -6.354523e-05 -1.265587e-04 0.000000e+00  
 3.514018e-05 -1.137572e-04 0.000000e+00  
 -1.357079e-04 -1.723572e-04 0.000000e+00  
 9.675462e-05 -1.479902e-04 0.000000e+00  
 2.052643e-04 -2.192771e-04 0.000000e+00  
 -4.969499e-05 -1.507880e-04 0.000000e+00  
 1.489799e-05 -1.445395e-04 0.000000e+00  
 -1.264998e-04 -1.823848e-04 0.000000e+00  
 8.424735e-05 -1.642665e-04 0.000000e+00  
 -2.338108e-04 -2.404727e-04 0.000000e+00  
 1.789511e-04 -2.128780e-04 0.000000e+00  
 -2.109948e-05 -1.841626e-04 0.000000e+00  
 -1.053749e-04 -2.024818e-04 0.000000e+00  
 5.939156e-05 -1.906462e-04 0.000000e+00  
 -2.103242e-04 -2.456109e-04 0.000000e+00  
 1.539174e-04 -2.232961e-04 0.000000e+00  
 2.886556e-04 -2.886442e-04 0.000000e+00  
 -7.387746e-05 -2.360630e-04 0.000000e+00  
 2.229555e-05 -2.302845e-04 0.000000e+00  
 -1.821439e-04 -2.657103e-04 0.000000e+00  
 1.232562e-04 -2.490100e-04 0.000000e+00  
 -3.199700e-04 -3.198718e-04 0.000000e+00  
 2.484999e-04 -2.947415e-04 0.000000e+00  
 -2.925294e-05 -2.792976e-04 0.000000e+00  
 -1.443024e-04 -2.963946e-04 0.000000e+00  
 8.208884e-05 -2.854414e-04 0.000000e+00  
 -2.797451e-04 -3.366489e-04 0.000000e+00  
 2.071916e-04 -3.160932e-04 0.000000e+00  
 3.684205e-04 -3.754017e-04 0.000000e+00  
 -9.646564e-05 -3.389735e-04 0.000000e+00  
 2.934101e-05 -3.336245e-04 0.000000e+00  
 -2.342117e-04 -3.665667e-04 0.000000e+00  
 1.598929e-04 -3.511197e-04 0.000000e+00  
 -4.007816e-04 -4.166831e-04 0.000000e+00  
 3.137597e-04 -3.934352e-04 0.000000e+00  
 -3.673748e-05 -3.911298e-04 0.000000e+00  
 -1.804320e-04 -4.069871e-04 0.000000e+00  
 1.033084e-04 -3.968329e-04 0.000000e+00  
 -3.442291e-04 -4.442549e-04 0.000000e+00  
 2.568022e-04 -4.251688e-04 0.000000e+00  
 4.438012e-04 -4.786540e-04 0.000000e+00  
 -1.174033e-04 -4.581097e-04 0.000000e+00  
 3.598892e-05 -4.531521e-04 0.000000e+00  
 -2.825870e-04 -4.835966e-04 0.000000e+00  
 1.940533e-04 -4.692439e-04 0.000000e+00  
 -4.760477e-04 -5.296810e-04 0.000000e+00  
 3.746118e-04 -5.078490e-04 0.000000e+00  
 -4.359724e-05 -5.183984e-04 0.000000e+00  
 -2.138149e-04 -5.330144e-04 0.000000e+00  
 1.230162e-04 -5.235795e-04 0.000000e+00  
 -4.038838e-04 -5.672599e-04 0.000000e+00  
 3.027820e-04 -5.493914e-04 0.000000e+00  
 5.143262e-04 -5.973250e-04 0.000000e+00  
 -1.367019e-04 -5.921650e-04 0.000000e+00  
 4.217275e-05 -5.875632e-04 0.000000e+00  
 -3.272422e-04 -6.155299e-04 0.000000e+00  
 -5.456734e-04 -6.576385e-04 0.000000e+00  
 2.256447e-04 -6.021299e-04 0.000000e+00  
 4.309598e-04 -6.368792e-04 0.000000e+00  
 -4.988738e-05 -6.599025e-04 0.000000e+00  
 -2.444994e-04 -6.732860e-04 0.000000e+00  
 1.411551e-04 -6.644969e-04 0.000000e+00  
 -4.587660e-04 -7.045065e-04 0.000000e+00  
 3.451039e-04 -6.876476e-04 0.000000e+00  
 5.796965e-04 -7.302350e-04 0.000000e+00  
 -1.543967e-04 -7.399264e-04 0.000000e+00  
 4.783203e-05 -7.356479e-04 0.000000e+00  
 -3.681914e-04 -7.611666e-04 0.000000e+00  
 -6.096188e-04 -7.993451e-04 0.000000e+00  
 2.545967e-04 -7.485971e-04 0.000000e+00  
 4.827247e-04 -7.793970e-04 0.000000e+00  
 -5.565698e-05 -8.145006e-04 0.000000e+00  
 -2.725296e-04 -8.266613e-04 0.000000e+00  
 1.576746e-04 -8.184526e-04 0.000000e+00  
 -5.089145e-04 -8.548527e-04 0.000000e+00  
 3.837298e-04 -8.388288e-04 0.000000e+00  
 6.397193e-04 -8.761386e-04 0.000000e+00  
 -1.705237e-04 -9.002538e-04 0.000000e+00  
 5.292041e-05 -8.962710e-04 0.000000e+00  
 5.298427e-04 -9.342462e-04 0.000000e+00  
 2.808593e-04 -9.075167e-04 0.000000e+00  
 -4.054593e-04 -9.193605e-04 0.000000e+00  
 -6.678719e-04 -9.536129e-04 0.000000e+00  
 6.942689e-04 -1.033737e-03 0.000000e+00  
 4.186234e-04 -1.001833e-03 0.000000e+00  
 -5.543567e-04 -1.017177e-03 0.000000e+00  
 1.725365e-04 -9.843609e-04 0.000000e+00  
 -2.979400e-04 -9.920439e-04 0.000000e+00  
 -6.094357e-05 -9.811050e-04 0.000000e+00  
 5.722604e-04 -1.100248e-03 0.000000e+00  
 3.043957e-04 -1.077798e-03 0.000000e+00  
 -7.204314e-04 -1.119270e-03 0.000000e+00  
 -4.390666e-04 -1.089005e-03 0.000000e+00  
 5.740474e-05 -1.068352e-03 0.000000e+00  
 -1.851107e-04 -1.072061e-03 0.000000e+00  
 7.432620e-04 -1.201673e-03 0.000000e+00  
 4.497529e-04 -1.175572e-03 0.000000e+00  
 -5.951088e-04 -1.190378e-03 0.000000e+00  
 1.857135e-04 -1.161177e-03 0.000000e+00  
 -3.207532e-04 -1.168376e-03 0.000000e+00  
 -6.577240e-05 -1.158673e-03 0.000000e+00  
 6.099305e-04 -1.276206e-03 0.000000e+00  
 3.251803e-04 -1.258377e-03 0.000000e+00  
 -7.672965e-04 -1.295143e-03 0.000000e+00  
 -4.690233e-04 -1.269015e-03 0.000000e+00  
 6.126539e-05 -1.250845e-03 0.000000e+00  
 -1.981731e-04 -1.254293e-03 0.000000e+00  
 7.866431e-04 -1.378500e-03 0.000000e+00  
 4.770945e-04 -1.358982e-03 0.000000e+00  
 -6.311753e-04 -1.373376e-03 0.000000e+00  
 1.971943e-04 -1.347892e-03 0.000000e+00  
 -3.409775e-04 -1.354632e-03 0.000000e+00  
 -7.015252e-05 -1.346196e-03 0.000000e+00  
 6.428114e-04 -1.460916e-03 0.000000e+00  
 -8.084609e-04 -1.480028e-03 0.000000e+00  
 3.432073e-04 -1.448201e-03 0.000000e+00  
 -4.953254e-04 -1.458308e-03 0.000000e+00  
 6.450554e-05 -1.442712e-03 0.000000e+00  
 -2.097081e-04 -1.445899e-03 0.000000e+00  
 8.243780e-04 -1.562644e-03 0.000000e+00  
 5.006471e-04 -1.551055e-03 0.000000e+00  
 -6.625516e-04 -1.565114e-03 0.000000e+00  
 2.070025e-04 -1.543535e-03 0.000000e+00  
 -3.586059e-04 -1.549814e-03 0.000000e+00  
 -7.406539e-05 -1.542698e-03 0.000000e+00  
 6.708722e-04 -1.653177e-03 0.000000e+00  
 -8.439116e-04 -1.672652e-03 0.000000e+00  
 3.585170e-04 -1.646213e-03 0.000000e+00  
 -5.179603e-04 -1.655765e-03 0.000000e+00  
 6.717384e-05 -1.642880e-03 0.000000e+00  
 -2.196878e-04 -1.645787e-03 0.000000e+00  
 8.564540e-04 -1.752332e-03 0.000000e+00  
 5.204640e-04 -1.750901e-03 0.000000e+00  
 -6.892380e-04 -1.764597e-03 0.000000e+00  
 2.152353e-04 -1.747193e-03 0.000000e+00  
 -3.736258e-04 -1.752962e-03 0.000000e+00  
 -7.744819e-05 -1.747230e-03 0.000000e+00  
 6.941058e-04 -1.851815e-03 0.000000e+00  
 -8.736317e-04 -1.871613e-03 0.000000e+00  
 3.712465e-04 -1.851305e-03 0.000000e+00  
 -5.369315e-04 -1.860166e-03 0.000000e+00  
 6.939855e-05 -1.850147e-03 0.000000e+00  
 -2.280642e-04 -1.852722e-03 0.000000e+00  
 8.828872e-04 -1.945491e-03 0.000000e+00  
 5.367105e-04 -1.957887e-03 0.000000e+00  
 -7.112731e-04 -1.970990e-03 0.000000e+00  
 2.221242e-04 -1.958068e-03 0.000000e+00  
 -3.860608e-04 -1.963202e-03 0.000000e+00  
 -8.018577e-05 -1.958901e-03 0.000000e+00  
 7.125578e-04 -2.055679e-03 0.000000e+00  
 -8.976077e-04 -2.075277e-03 0.000000e+00  
 3.817030e-04 -2.062204e-03 0.000000e+00  
 -5.523163e-04 -2.070045e-03 0.000000e+00  
 7.141607e-05 -2.062975e-03 0.000000e+00  
 -2.348128e-04 -2.065109e-03 0.000000e+00  
 9.037371e-04 -2.139610e-03 0.000000e+00  
 5.497562e-04 -2.171910e-03 0.000000e+00  
 -7.288121e-04 -2.183873e-03 0.000000e+00  
 2.280945e-04 -2.175613e-03 0.000000e+00  
 -3.960385e-04 -2.179894e-03 0.000000e+00  
 -8.215444e-05 -2.176971e-03 0.000000e+00  
 7.263729e-04 -2.263497e-03 0.000000e+00  
 -9.158419e-04 -2.281587e-03 0.000000e+00  
 3.904388e-04 -2.277108e-03 0.000000e+00  
 -5.643654e-04 -2.283321e-03 0.000000e+00  
 7.348695e-05 -2.278972e-03 0.000000e+00  
 -2.399626e-04 -2.280532e-03 0.000000e+00  
 9.191368e-04 -2.331581e-03 0.000000e+00  
 5.603443e-04 -2.393908e-03 0.000000e+00  
 -7.422480e-04 -2.403753e-03 0.000000e+00  
 2.335598e-04 -2.399801e-03 0.000000e+00  
 -4.038402e-04 -2.402975e-03 0.000000e+00  
 -8.321669e-05 -2.401207e-03 0.000000e+00  
 7.361419e-04 -2.473221e-03 0.000000e+00  
 -9.283673e-04 -2.487563e-03 0.000000e+00  
 3.977947e-04 -2.492383e-03 0.000000e+00  
 -5.734606e-04 -2.496188e-03 0.000000e+00  
 7.583253e-05 -2.493802e-03 0.000000e+00  
 -2.435982e-04 -2.494550e-03 0.000000e+00  
 9.293758e-04 -2.517982e-03 0.000000e+00  
 5.691358e-04 -2.626122e-03 0.000000e+00  
 -7.523635e-04 -2.632615e-03 0.000000e+00  
 2.387472e-04 -2.631775e-03 0.000000e+00  
 -4.092927e-04 -2.633434e-03 0.000000e+00  
 -8.359205e-05 -2.632442e-03 0.000000e+00  
 7.407377e-04 -2.679658e-03 0.000000e+00  
 -9.353051e-04 -2.688047e-03 0.000000e+00  
 9.349557e-04 -2.695491e-03 0.000000e+00  
 -5.794686e-04 -2.699373e-03 0.000000e+00  
 -2.454991e-04 -2.698049e-03 0.000000e+00  
 7.756651e-05 -2.697947e-03 0.000000e+00  
 4.048310e-04 -2.699029e-03 0.000000e+00  
 4.072249e-04 -2.871369e-03 0.000000e+00  
 7.768707e-05 -2.871429e-03 0.000000e+00  
 -2.460462e-04 -2.871437e-03 0.000000e+00  
 -5.803920e-04 -2.871493e-03 0.000000e+00  
 7.543892e-04 -2.871773e-03 0.000000e+00  
 -4.111940e-04 -2.871354e-03 0.000000e+00  
 -8.386429e-05 -2.871359e-03 0.000000e+00  
 2.407603e-04 -2.871320e-03 0.000000e+00  
 -7.572166e-04 -2.871594e-03 0.000000e+00  
 5.787693e-04 -2.871227e-03 0.000000e+00  
 -9.373820e-04 -2.872375e-03 0.000000e+00  
 9.368720e-04 -2.872503e-03 0.000000e+00  
  
 