# vtk DataFile Version 1.0 
PolyMesh 
ASCII 
 
DATASET POLYDATA 
 
POINTS 325 float 
0.000000e+00 -2.000000e+00 0.000000e+00  
 3.333333e-01 -2.000000e+00 0.000000e+00  
 6.666667e-01 -2.000000e+00 0.000000e+00  
 1.000000e+00 -2.000000e+00 0.000000e+00  
 1.333333e+00 -2.000000e+00 0.000000e+00  
 1.666667e+00 -2.000000e+00 0.000000e+00  
 2.000000e+00 -2.000000e+00 0.000000e+00  
 2.333333e+00 -2.000000e+00 0.000000e+00  
 2.666667e+00 -2.000000e+00 0.000000e+00  
 3.000000e+00 -2.000000e+00 0.000000e+00  
 3.333333e+00 -2.000000e+00 0.000000e+00  
 3.666667e+00 -2.000000e+00 0.000000e+00  
 4.000000e+00 -2.000000e+00 0.000000e+00  
 4.333333e+00 -2.000000e+00 0.000000e+00  
 4.666667e+00 -2.000000e+00 0.000000e+00  
 5.000000e+00 -2.000000e+00 0.000000e+00  
 5.333333e+00 -2.000000e+00 0.000000e+00  
 5.666667e+00 -2.000000e+00 0.000000e+00  
 6.000000e+00 -2.000000e+00 0.000000e+00  
 6.333333e+00 -2.000000e+00 0.000000e+00  
 6.666667e+00 -2.000000e+00 0.000000e+00  
 7.000000e+00 -2.000000e+00 0.000000e+00  
 7.333333e+00 -2.000000e+00 0.000000e+00  
 7.666667e+00 -2.000000e+00 0.000000e+00  
 8.000000e+00 -2.000000e+00 0.000000e+00  
 0.000000e+00 -1.666667e+00 0.000000e+00  
 3.333333e-01 -1.666667e+00 0.000000e+00  
 6.666667e-01 -1.666667e+00 0.000000e+00  
 1.000000e+00 -1.666667e+00 0.000000e+00  
 1.333333e+00 -1.666667e+00 0.000000e+00  
 1.666667e+00 -1.666667e+00 0.000000e+00  
 2.000000e+00 -1.666667e+00 0.000000e+00  
 2.333333e+00 -1.666667e+00 0.000000e+00  
 2.666667e+00 -1.666667e+00 0.000000e+00  
 3.000000e+00 -1.666667e+00 0.000000e+00  
 3.333333e+00 -1.666667e+00 0.000000e+00  
 3.666667e+00 -1.666667e+00 0.000000e+00  
 4.000000e+00 -1.666667e+00 0.000000e+00  
 4.333333e+00 -1.666667e+00 0.000000e+00  
 4.666667e+00 -1.666667e+00 0.000000e+00  
 5.000000e+00 -1.666667e+00 0.000000e+00  
 5.333333e+00 -1.666667e+00 0.000000e+00  
 5.666667e+00 -1.666667e+00 0.000000e+00  
 6.000000e+00 -1.666667e+00 0.000000e+00  
 6.333333e+00 -1.666667e+00 0.000000e+00  
 6.666667e+00 -1.666667e+00 0.000000e+00  
 7.000000e+00 -1.666667e+00 0.000000e+00  
 7.333333e+00 -1.666667e+00 0.000000e+00  
 7.666667e+00 -1.666667e+00 0.000000e+00  
 8.000000e+00 -1.666667e+00 0.000000e+00  
 0.000000e+00 -1.333333e+00 0.000000e+00  
 3.333333e-01 -1.333333e+00 0.000000e+00  
 6.666667e-01 -1.333333e+00 0.000000e+00  
 1.000000e+00 -1.333333e+00 0.000000e+00  
 1.333333e+00 -1.333333e+00 0.000000e+00  
 1.666667e+00 -1.333333e+00 0.000000e+00  
 2.000000e+00 -1.333333e+00 0.000000e+00  
 2.333333e+00 -1.333333e+00 0.000000e+00  
 2.666667e+00 -1.333333e+00 0.000000e+00  
 3.000000e+00 -1.333333e+00 0.000000e+00  
 3.333333e+00 -1.333333e+00 0.000000e+00  
 3.666667e+00 -1.333333e+00 0.000000e+00  
 4.000000e+00 -1.333333e+00 0.000000e+00  
 4.333333e+00 -1.333333e+00 0.000000e+00  
 4.666667e+00 -1.333333e+00 0.000000e+00  
 5.000000e+00 -1.333333e+00 0.000000e+00  
 5.333333e+00 -1.333333e+00 0.000000e+00  
 5.666667e+00 -1.333333e+00 0.000000e+00  
 6.000000e+00 -1.333333e+00 0.000000e+00  
 6.333333e+00 -1.333333e+00 0.000000e+00  
 6.666667e+00 -1.333333e+00 0.000000e+00  
 7.000000e+00 -1.333333e+00 0.000000e+00  
 7.333333e+00 -1.333333e+00 0.000000e+00  
 7.666667e+00 -1.333333e+00 0.000000e+00  
 8.000000e+00 -1.333333e+00 0.000000e+00  
 0.000000e+00 -1.000000e+00 0.000000e+00  
 3.333333e-01 -1.000000e+00 0.000000e+00  
 6.666667e-01 -1.000000e+00 0.000000e+00  
 1.000000e+00 -1.000000e+00 0.000000e+00  
 1.333333e+00 -1.000000e+00 0.000000e+00  
 1.666667e+00 -1.000000e+00 0.000000e+00  
 2.000000e+00 -1.000000e+00 0.000000e+00  
 2.333333e+00 -1.000000e+00 0.000000e+00  
 2.666667e+00 -1.000000e+00 0.000000e+00  
 3.000000e+00 -1.000000e+00 0.000000e+00  
 3.333333e+00 -1.000000e+00 0.000000e+00  
 3.666667e+00 -1.000000e+00 0.000000e+00  
 4.000000e+00 -1.000000e+00 0.000000e+00  
 4.333333e+00 -1.000000e+00 0.000000e+00  
 4.666667e+00 -1.000000e+00 0.000000e+00  
 5.000000e+00 -1.000000e+00 0.000000e+00  
 5.333333e+00 -1.000000e+00 0.000000e+00  
 5.666667e+00 -1.000000e+00 0.000000e+00  
 6.000000e+00 -1.000000e+00 0.000000e+00  
 6.333333e+00 -1.000000e+00 0.000000e+00  
 6.666667e+00 -1.000000e+00 0.000000e+00  
 7.000000e+00 -1.000000e+00 0.000000e+00  
 7.333333e+00 -1.000000e+00 0.000000e+00  
 7.666667e+00 -1.000000e+00 0.000000e+00  
 8.000000e+00 -1.000000e+00 0.000000e+00  
 0.000000e+00 -6.666667e-01 0.000000e+00  
 3.333333e-01 -6.666667e-01 0.000000e+00  
 6.666667e-01 -6.666667e-01 0.000000e+00  
 1.000000e+00 -6.666667e-01 0.000000e+00  
 1.333333e+00 -6.666667e-01 0.000000e+00  
 1.666667e+00 -6.666667e-01 0.000000e+00  
 2.000000e+00 -6.666667e-01 0.000000e+00  
 2.333333e+00 -6.666667e-01 0.000000e+00  
 2.666667e+00 -6.666667e-01 0.000000e+00  
 3.000000e+00 -6.666667e-01 0.000000e+00  
 3.333333e+00 -6.666667e-01 0.000000e+00  
 3.666667e+00 -6.666667e-01 0.000000e+00  
 4.000000e+00 -6.666667e-01 0.000000e+00  
 4.333333e+00 -6.666667e-01 0.000000e+00  
 4.666667e+00 -6.666667e-01 0.000000e+00  
 5.000000e+00 -6.666667e-01 0.000000e+00  
 5.333333e+00 -6.666667e-01 0.000000e+00  
 5.666667e+00 -6.666667e-01 0.000000e+00  
 6.000000e+00 -6.666667e-01 0.000000e+00  
 6.333333e+00 -6.666667e-01 0.000000e+00  
 6.666667e+00 -6.666667e-01 0.000000e+00  
 7.000000e+00 -6.666667e-01 0.000000e+00  
 7.333333e+00 -6.666667e-01 0.000000e+00  
 7.666667e+00 -6.666667e-01 0.000000e+00  
 8.000000e+00 -6.666667e-01 0.000000e+00  
 0.000000e+00 -3.333333e-01 0.000000e+00  
 3.333333e-01 -3.333333e-01 0.000000e+00  
 6.666667e-01 -3.333333e-01 0.000000e+00  
 1.000000e+00 -3.333333e-01 0.000000e+00  
 1.333333e+00 -3.333333e-01 0.000000e+00  
 1.666667e+00 -3.333333e-01 0.000000e+00  
 2.000000e+00 -3.333333e-01 0.000000e+00  
 2.333333e+00 -3.333333e-01 0.000000e+00  
 2.666667e+00 -3.333333e-01 0.000000e+00  
 3.000000e+00 -3.333333e-01 0.000000e+00  
 3.333333e+00 -3.333333e-01 0.000000e+00  
 3.666667e+00 -3.333333e-01 0.000000e+00  
 4.000000e+00 -3.333333e-01 0.000000e+00  
 4.333333e+00 -3.333333e-01 0.000000e+00  
 4.666667e+00 -3.333333e-01 0.000000e+00  
 5.000000e+00 -3.333333e-01 0.000000e+00  
 5.333333e+00 -3.333333e-01 0.000000e+00  
 5.666667e+00 -3.333333e-01 0.000000e+00  
 6.000000e+00 -3.333333e-01 0.000000e+00  
 6.333333e+00 -3.333333e-01 0.000000e+00  
 6.666667e+00 -3.333333e-01 0.000000e+00  
 7.000000e+00 -3.333333e-01 0.000000e+00  
 7.333333e+00 -3.333333e-01 0.000000e+00  
 7.666667e+00 -3.333333e-01 0.000000e+00  
 8.000000e+00 -3.333333e-01 0.000000e+00  
 0.000000e+00 0.000000e+00 0.000000e+00  
 3.333333e-01 0.000000e+00 0.000000e+00  
 6.666667e-01 0.000000e+00 0.000000e+00  
 1.000000e+00 0.000000e+00 0.000000e+00  
 1.333333e+00 0.000000e+00 0.000000e+00  
 1.666667e+00 0.000000e+00 0.000000e+00  
 2.000000e+00 0.000000e+00 0.000000e+00  
 2.333333e+00 0.000000e+00 0.000000e+00  
 2.666667e+00 0.000000e+00 0.000000e+00  
 3.000000e+00 0.000000e+00 0.000000e+00  
 3.333333e+00 0.000000e+00 0.000000e+00  
 3.666667e+00 0.000000e+00 0.000000e+00  
 4.000000e+00 0.000000e+00 0.000000e+00  
 4.333333e+00 0.000000e+00 0.000000e+00  
 4.666667e+00 0.000000e+00 0.000000e+00  
 5.000000e+00 0.000000e+00 0.000000e+00  
 5.333333e+00 0.000000e+00 0.000000e+00  
 5.666667e+00 0.000000e+00 0.000000e+00  
 6.000000e+00 0.000000e+00 0.000000e+00  
 6.333333e+00 0.000000e+00 0.000000e+00  
 6.666667e+00 0.000000e+00 0.000000e+00  
 7.000000e+00 0.000000e+00 0.000000e+00  
 7.333333e+00 0.000000e+00 0.000000e+00  
 7.666667e+00 0.000000e+00 0.000000e+00  
 8.000000e+00 0.000000e+00 0.000000e+00  
 0.000000e+00 3.333333e-01 0.000000e+00  
 3.333333e-01 3.333333e-01 0.000000e+00  
 6.666667e-01 3.333333e-01 0.000000e+00  
 1.000000e+00 3.333333e-01 0.000000e+00  
 1.333333e+00 3.333333e-01 0.000000e+00  
 1.666667e+00 3.333333e-01 0.000000e+00  
 2.000000e+00 3.333333e-01 0.000000e+00  
 2.333333e+00 3.333333e-01 0.000000e+00  
 2.666667e+00 3.333333e-01 0.000000e+00  
 3.000000e+00 3.333333e-01 0.000000e+00  
 3.333333e+00 3.333333e-01 0.000000e+00  
 3.666667e+00 3.333333e-01 0.000000e+00  
 4.000000e+00 3.333333e-01 0.000000e+00  
 4.333333e+00 3.333333e-01 0.000000e+00  
 4.666667e+00 3.333333e-01 0.000000e+00  
 5.000000e+00 3.333333e-01 0.000000e+00  
 5.333333e+00 3.333333e-01 0.000000e+00  
 5.666667e+00 3.333333e-01 0.000000e+00  
 6.000000e+00 3.333333e-01 0.000000e+00  
 6.333333e+00 3.333333e-01 0.000000e+00  
 6.666667e+00 3.333333e-01 0.000000e+00  
 7.000000e+00 3.333333e-01 0.000000e+00  
 7.333333e+00 3.333333e-01 0.000000e+00  
 7.666667e+00 3.333333e-01 0.000000e+00  
 8.000000e+00 3.333333e-01 0.000000e+00  
 0.000000e+00 6.666667e-01 0.000000e+00  
 3.333333e-01 6.666667e-01 0.000000e+00  
 6.666667e-01 6.666667e-01 0.000000e+00  
 1.000000e+00 6.666667e-01 0.000000e+00  
 1.333333e+00 6.666667e-01 0.000000e+00  
 1.666667e+00 6.666667e-01 0.000000e+00  
 2.000000e+00 6.666667e-01 0.000000e+00  
 2.333333e+00 6.666667e-01 0.000000e+00  
 2.666667e+00 6.666667e-01 0.000000e+00  
 3.000000e+00 6.666667e-01 0.000000e+00  
 3.333333e+00 6.666667e-01 0.000000e+00  
 3.666667e+00 6.666667e-01 0.000000e+00  
 4.000000e+00 6.666667e-01 0.000000e+00  
 4.333333e+00 6.666667e-01 0.000000e+00  
 4.666667e+00 6.666667e-01 0.000000e+00  
 5.000000e+00 6.666667e-01 0.000000e+00  
 5.333333e+00 6.666667e-01 0.000000e+00  
 5.666667e+00 6.666667e-01 0.000000e+00  
 6.000000e+00 6.666667e-01 0.000000e+00  
 6.333333e+00 6.666667e-01 0.000000e+00  
 6.666667e+00 6.666667e-01 0.000000e+00  
 7.000000e+00 6.666667e-01 0.000000e+00  
 7.333333e+00 6.666667e-01 0.000000e+00  
 7.666667e+00 6.666667e-01 0.000000e+00  
 8.000000e+00 6.666667e-01 0.000000e+00  
 0.000000e+00 1.000000e+00 0.000000e+00  
 3.333333e-01 1.000000e+00 0.000000e+00  
 6.666667e-01 1.000000e+00 0.000000e+00  
 1.000000e+00 1.000000e+00 0.000000e+00  
 1.333333e+00 1.000000e+00 0.000000e+00  
 1.666667e+00 1.000000e+00 0.000000e+00  
 2.000000e+00 1.000000e+00 0.000000e+00  
[...]
 POINT_DATA 325 
 VECTORS Displacement float 
 1.397500e-04 -1.170000e-04 0.000000e+00  
 4.940454e-05 -1.204310e-04 0.000000e+00  
 -3.661087e-05 -1.378079e-04 0.000000e+00  
 -1.190544e-04 -1.694258e-04 0.000000e+00  
 -1.975071e-04 -2.142101e-04 0.000000e+00  
 -2.722545e-04 -2.719286e-04 0.000000e+00  
 -3.430953e-04 -3.416082e-04 0.000000e+00  
 -4.101632e-04 -4.229401e-04 0.000000e+00  
 -4.733658e-04 -5.149665e-04 0.000000e+00  
 -5.327608e-04 -6.173726e-04 0.000000e+00  
 -5.883112e-04 -7.291915e-04 0.000000e+00  
 -6.400383e-04 -8.501197e-04 0.000000e+00  
 -6.879297e-04 -9.791774e-04 0.000000e+00  
 -7.319921e-04 -1.116072e-03 0.000000e+00  
 -7.722214e-04 -1.259815e-03 0.000000e+00  
 -8.086213e-04 -1.410122e-03 0.000000e+00  
 -8.411871e-04 -1.565996e-03 0.000000e+00  
 -8.699265e-04 -1.727158e-03 0.000000e+00  
 -8.948296e-04 -1.892611e-03 0.000000e+00  
 -9.159127e-04 -2.062072e-03 0.000000e+00  
 -9.331588e-04 -2.234556e-03 0.000000e+00  
 -9.465970e-04 -2.409765e-03 0.000000e+00  
 -9.562045e-04 -2.586756e-03 0.000000e+00  
 -9.620269e-04 -2.765197e-03 0.000000e+00  
 -9.640354e-04 -2.944370e-03 0.000000e+00  
 1.305266e-04 -8.125000e-05 0.000000e+00  
 5.569085e-05 -8.562901e-05 0.000000e+00  
 -1.634651e-05 -1.048368e-04 0.000000e+00  
 -8.488760e-05 -1.377161e-04 0.000000e+00  
 -1.504127e-04 -1.842038e-04 0.000000e+00  
 -2.126196e-04 -2.432456e-04 0.000000e+00  
 -2.717188e-04 -3.145997e-04 0.000000e+00  
 -3.275701e-04 -3.972692e-04 0.000000e+00  
 -3.802652e-04 -4.909671e-04 0.000000e+00  
 -4.297459e-04 -5.947100e-04 0.000000e+00  
 -4.760467e-04 -7.082044e-04 0.000000e+00  
 -5.191479e-04 -8.304652e-04 0.000000e+00  
 -5.590598e-04 -9.612026e-04 0.000000e+00  
 -5.957772e-04 -1.099427e-03 0.000000e+00  
 -6.293029e-04 -1.244852e-03 0.000000e+00  
 -6.596342e-04 -1.396485e-03 0.000000e+00  
 -6.867757e-04 -1.554044e-03 0.000000e+00  
 -7.107201e-04 -1.716532e-03 0.000000e+00  
 -7.314792e-04 -1.883667e-03 0.000000e+00  
 -7.490370e-04 -2.054458e-03 0.000000e+00  
 -7.634168e-04 -2.228614e-03 0.000000e+00  
 -7.745895e-04 -2.405164e-03 0.000000e+00  
 -7.825918e-04 -2.583804e-03 0.000000e+00  
 -7.873705e-04 -2.763618e-03 0.000000e+00  
 -7.889515e-04 -2.944347e-03 0.000000e+00  
 1.136296e-04 -5.200000e-05 0.000000e+00  
 5.370426e-05 -5.747510e-05 0.000000e+00  
 -3.625378e-06 -7.763443e-05 0.000000e+00  
 -5.865485e-05 -1.119629e-04 0.000000e+00  
 -1.109527e-04 -1.594747e-04 0.000000e+00  
 -1.608163e-04 -2.199380e-04 0.000000e+00  
 -2.080400e-04 -2.923420e-04 0.000000e+00  
 -2.527633e-04 -3.764205e-04 0.000000e+00  
 -2.948966e-04 -4.711747e-04 0.000000e+00  
 -3.344963e-04 -5.763244e-04 0.000000e+00  
 -3.715295e-04 -6.908749e-04 0.000000e+00  
 -4.060146e-04 -8.145435e-04 0.000000e+00  
 -4.379424e-04 -9.463355e-04 0.000000e+00  
 -4.673172e-04 -1.085969e-03 0.000000e+00  
 -4.941368e-04 -1.232448e-03 0.000000e+00  
 -5.184035e-04 -1.385491e-03 0.000000e+00  
 -5.401131e-04 -1.544102e-03 0.000000e+00  
 -5.592726e-04 -1.708001e-03 0.000000e+00  
 -5.758704e-04 -1.876190e-03 0.000000e+00  
 -5.899226e-04 -2.048389e-03 0.000000e+00  
 -6.014054e-04 -2.223605e-03 0.000000e+00  
 -6.103464e-04 -2.401556e-03 0.000000e+00  
 -6.167086e-04 -2.581260e-03 0.000000e+00  
 -6.205223e-04 -2.762468e-03 0.000000e+00  
 -6.218461e-04 -2.944123e-03 0.000000e+00  
 9.059375e-05 -2.925000e-05 0.000000e+00  
 4.571650e-05 -3.556030e-05 0.000000e+00  
 2.619991e-06 -5.666890e-05 0.000000e+00  
 -3.848344e-05 -9.176734e-05 0.000000e+00  
 -7.782217e-05 -1.404063e-04 0.000000e+00  
 -1.151417e-04 -2.016451e-04 0.000000e+00  
 -1.506182e-04 -2.751879e-04 0.000000e+00  
 -1.841275e-04 -3.600450e-04 0.000000e+00  
 -2.157511e-04 -4.559375e-04 0.000000e+00  
 -2.454389e-04 -5.618660e-04 0.000000e+00  
 -2.732212e-04 -6.775543e-04 0.000000e+00  
 -2.990820e-04 -8.020014e-04 0.000000e+00  
 -3.230293e-04 -9.349310e-04 0.000000e+00  
 -3.450598e-04 -1.075343e-03 0.000000e+00  
 -3.651751e-04 -1.222959e-03 0.000000e+00  
 -3.833733e-04 -1.376781e-03 0.000000e+00  
 -3.996578e-04 -1.536530e-03 0.000000e+00  
 -4.140216e-04 -1.701208e-03 0.000000e+00  
 -4.264745e-04 -1.870536e-03 0.000000e+00  
 -4.370003e-04 -2.043515e-03 0.000000e+00  
 -4.456175e-04 -2.219871e-03 0.000000e+00  
 -4.523015e-04 -2.398599e-03 0.000000e+00  
 -4.570752e-04 -2.579446e-03 0.000000e+00  
 -4.599508e-04 -2.761370e-03 0.000000e+00  
 -4.609203e-04 -2.944113e-03 0.000000e+00  
 6.295370e-05 -1.300000e-05 0.000000e+00  
 3.301744e-05 -1.994925e-05 0.000000e+00  
 4.362213e-06 -4.163599e-05 0.000000e+00  
 -2.311587e-05 -7.747735e-05 0.000000e+00  
 -4.925517e-05 -1.266463e-04 0.000000e+00  
 -7.419691e-05 -1.887264e-04 0.000000e+00  
 -9.780665e-05 -2.627814e-04 0.000000e+00  
 -1.201755e-04 -3.485011e-04 0.000000e+00  
 -1.412417e-04 -4.448982e-04 0.000000e+00  
 -1.610442e-04 -5.516934e-04 0.000000e+00  
 -1.795607e-04 -6.678840e-04 0.000000e+00  
 -1.968039e-04 -7.931978e-04 0.000000e+00  
 -2.127678e-04 -9.266298e-04 0.000000e+00  
 -2.274553e-04 -1.067907e-03 0.000000e+00  
 -2.408649e-04 -1.216027e-03 0.000000e+00  
 -2.529980e-04 -1.370714e-03 0.000000e+00  
 -2.638517e-04 -1.530967e-03 0.000000e+00  
 -2.734303e-04 -1.696512e-03 0.000000e+00  
 -2.817254e-04 -1.866343e-03 0.000000e+00  
 -2.887471e-04 -2.040193e-03 0.000000e+00  
 -2.944804e-04 -2.217048e-03 0.000000e+00  
 -2.989401e-04 -2.396653e-03 0.000000e+00  
 -3.021224e-04 -2.577972e-03 0.000000e+00  
 -3.040317e-04 -2.760752e-03 0.000000e+00  
 -3.046954e-04 -2.943926e-03 0.000000e+00  
 3.224421e-05 -3.250000e-06 0.000000e+00  
 1.728830e-05 -1.056788e-05 0.000000e+00  
 2.934817e-06 -3.267253e-05 0.000000e+00  
 -1.076292e-05 -6.882572e-05 0.000000e+00  
 -2.386991e-05 -1.185039e-04 0.000000e+00  
 -3.630732e-05 -1.808476e-04 0.000000e+00  
 -4.813619e-05 -2.554740e-04 0.000000e+00  
 -5.930552e-05 -3.414318e-04 0.000000e+00  
 -6.984857e-05 -4.384195e-04 0.000000e+00  
 -7.974446e-05 -5.454432e-04 0.000000e+00  
 -8.900582e-05 -6.622284e-04 0.000000e+00  
 -9.762607e-05 -7.877690e-04 0.000000e+00  
 -1.056086e-04 -9.217952e-04 0.000000e+00  
 -1.129521e-04 -1.063300e-03 0.000000e+00  
 -1.196572e-04 -1.212013e-03 0.000000e+00  
 -1.257230e-04 -1.366929e-03 0.000000e+00  
 -1.311509e-04 -1.527776e-03 0.000000e+00  
 -1.359379e-04 -1.693548e-03 0.000000e+00  
 -1.400878e-04 -1.863977e-03 0.000000e+00  
 -1.435941e-04 -2.038050e-03 0.000000e+00  
 -1.464636e-04 -2.215510e-03 0.000000e+00  
 -1.486907e-04 -2.395326e-03 0.000000e+00  
 -1.502809e-04 -2.577246e-03 0.000000e+00  
 -1.512405e-04 -2.760216e-03 0.000000e+00  
 -1.515662e-04 -2.943971e-03 0.000000e+00  
 -0.000000e+00 -0.000000e+00 0.000000e+00  
 1.353414e-19 -7.454119e-06 0.000000e+00  
 -8.275778e-20 -2.965208e-05 0.000000e+00  
 9.208489e-19 -6.600070e-05 0.000000e+00  
 -7.304965e-19 -1.157097e-04 0.000000e+00  
 2.265222e-18 -1.783199e-04 0.000000e+00  
 -1.899125e-18 -2.529279e-04 0.000000e+00  
 4.040632e-18 -3.391924e-04 0.000000e+00  
 -3.584082e-18 -4.361390e-04 0.000000e+00  
 6.082478e-18 -5.434823e-04 0.000000e+00  
 -5.798267e-18 -6.602202e-04 0.000000e+00  
 8.560309e-18 -7.860824e-04 0.000000e+00  
 -8.581711e-18 -9.200611e-04 0.000000e+00  
 1.100716e-17 -1.061887e-03 0.000000e+00  
 -1.154957e-17 -1.210553e-03 0.000000e+00  
 1.443476e-17 -1.365789e-03 0.000000e+00  
 -1.475757e-17 -1.526589e-03 0.000000e+00  
 1.776138e-17 -1.692684e-03 0.000000e+00  
 -1.833269e-17 -1.863063e-03 0.000000e+00  
 2.210598e-17 -2.037465e-03 0.000000e+00  
 -2.227129e-17 -2.214867e-03 0.000000e+00  
 2.672385e-17 -2.395017e-03 0.000000e+00  
 -2.552553e-17 -2.576870e-03 0.000000e+00  
 3.054526e-17 -2.760171e-03 0.000000e+00  
 -2.888491e-17 -2.943853e-03 0.000000e+00  
 -3.224421e-05 -3.250000e-06 0.000000e+00  
 -1.728830e-05 -1.056788e-05 0.000000e+00  
 -2.934817e-06 -3.267253e-05 0.000000e+00  
 1.076292e-05 -6.882572e-05 0.000000e+00  
 2.386991e-05 -1.185039e-04 0.000000e+00  
 3.630732e-05 -1.808476e-04 0.000000e+00  
 4.813619e-05 -2.554740e-04 0.000000e+00  
 5.930552e-05 -3.414318e-04 0.000000e+00  
 6.984857e-05 -4.384195e-04 0.000000e+00  
 7.974446e-05 -5.454432e-04 0.000000e+00  
 8.900582e-05 -6.622284e-04 0.000000e+00  
 9.762607e-05 -7.877690e-04 0.000000e+00  
 1.056086e-04 -9.217952e-04 0.000000e+00  
 1.129521e-04 -1.063300e-03 0.000000e+00  
 1.196572e-04 -1.212013e-03 0.000000e+00  
 1.257230e-04 -1.366929e-03 0.000000e+00  
 1.311509e-04 -1.527776e-03 0.000000e+00  
 1.359379e-04 -1.693548e-03 0.000000e+00  
 1.400878e-04 -1.863977e-03 0.000000e+00  
 1.435941e-04 -2.038050e-03 0.000000e+00  
 1.464636e-04 -2.215510e-03 0.000000e+00  
 1.486907e-04 -2.395326e-03 0.000000e+00  
 1.502809e-04 -2.577246e-03 0.000000e+00  
 1.512405e-04 -2.760216e-03 0.000000e+00  
 1.515662e-04 -2.943971e-03 0.000000e+00  
 -6.295370e-05 -1.300000e-05 0.000000e+00  
 -3.301744e-05 -1.994925e-05 0.000000e+00  
 -4.362213e-06 -4.163599e-05 0.000000e+00  
 2.311587e-05 -7.747735e-05 0.000000e+00  
 4.925517e-05 -1.266463e-04 0.000000e+00  
 7.419691e-05 -1.887264e-04 0.000000e+00  
 9.780665e-05 -2.627814e-04 0.000000e+00  
 1.201755e-04 -3.485011e-04 0.000000e+00  
 1.412417e-04 -4.448982e-04 0.000000e+00  
 1.610442e-04 -5.516934e-04 0.000000e+00  
 1.795607e-04 -6.678840e-04 0.000000e+00  
 1.968039e-04 -7.931978e-04 0.000000e+00  
 2.127678e-04 -9.266298e-04 0.000000e+00  
 2.274553e-04 -1.067907e-03 0.000000e+00  
 2.408649e-04 -1.216027e-03 0.000000e+00  
 2.529980e-04 -1.370714e-03 0.000000e+00  
 2.638517e-04 -1.530967e-03 0.000000e+00  
 2.734303e-04 -1.696512e-03 0.000000e+00  
 2.817254e-04 -1.866343e-03 0.000000e+00  
 2.887471e-04 -2.040193e-03 0.000000e+00  
 2.944804e-04 -2.217048e-03 0.000000e+00  
 2.989401e-04 -2.396653e-03 0.000000e+00  
 3.021224e-04 -2.577972e-03 0.000000e+00  
 3.040317e-04 -2.760752e-03 0.000000e+00  
 3.046954e-04 -2.943926e-03 0.000000e+00  
 -9.059375e-05 -2.925000e-05 0.000000e+00  
 -4.571650e-05 -3.556030e-05 0.000000e+00  
 -2.619991e-06 -5.666890e-05 0.000000e+00  
 3.848344e-05 -9.176734e-05 0.000000e+00  
 7.782217e-05 -1.404063e-04 0.000000e+00  
 1.151417e-04 -2.016451e-04 0.000000e+00  
 1.506182e-04 -2.751879e-04 0.000000e+00  
 1.841275e-04 -3.600450e-04 0.000000e+00  
 2.157511e-04 -4.559375e-04 0.000000e+00  
 2.454389e-04 -5.618660e-04 0.000000e+00  
 2.732212e-04 -6.775543e-04 0.000000e+00  
 2.990820e-04 -8.020014e-04 0.000000e+00  
 3.230293e-04 -9.349310e-04 0.000000e+00  
 3.450598e-04 -1.075343e-03 0.000000e+00  
 3.651751e-04 -1.222959e-03 0.000000e+00  
 3.833733e-04 -1.376781e-03 0.000000e+00  
 3.996578e-04 -1.536530e-03 0.000000e+00  
 4.140216e-04 -1.701208e-03 0.000000e+00  
 4.264745e-04 -1.870536e-03 0.000000e+00  
 4.370003e-04 -2.043515e-03 0.000000e+00  
 4.456175e-04 -2.219871e-03 0.000000e+00  
 4.523015e-04 -2.398599e-03 0.000000e+00  
 4.570752e-04 -2.579446e-03 0.000000e+00  
 4.599508e-04 -2.761370e-03 0.000000e+00  
 4.609203e-04 -2.944113e-03 0.000000e+00  
 -1.136296e-04 -5.200000e-05 0.000000e+00  
 -5.370426e-05 -5.747510e-05 0.000000e+00  
 3.625378e-06 -7.763443e-05 0.000000e+00  
 5.865485e-05 -1.119629e-04 0.000000e+00  
 1.109527e-04 -1.594747e-04 0.000000e+00  
 1.608163e-04 -2.199380e-04 0.000000e+00  
 2.080400e-04 -2.923420e-04 0.000000e+00  
 2.527633e-04 -3.764205e-04 0.000000e+00  
 2.948966e-04 -4.711747e-04 0.000000e+00  
 3.344963e-04 -5.763244e-04 0.000000e+00  
 3.715295e-04 -6.908749e-04 0.000000e+00  
 4.060146e-04 -8.145435e-04 0.000000e+00  
 4.379424e-04 -9.463355e-04 0.000000e+00  
 4.673172e-04 -1.085969e-03 0.000000e+00  
 4.941368e-04 -1.232448e-03 0.000000e+00  
 5.184035e-04 -1.385491e-03 0.000000e+00  
 5.401131e-04 -1.544102e-03 0.000000e+00  
 5.592726e-04 -1.708001e-03 0.000000e+00  
 5.758704e-04 -1.876190e-03 0.000000e+00  
 5.899226e-04 -2.048389e-03 0.000000e+00  
 6.014054e-04 -2.223605e-03 0.000000e+00  
 6.103464e-04 -2.401556e-03 0.000000e+00  
 6.167086e-04 -2.581260e-03 0.000000e+00  
 6.205223e-04 -2.762468e-03 0.000000e+00  
 6.218461e-04 -2.944123e-03 0.000000e+00  
 -1.305266e-04 -8.125000e-05 0.000000e+00  
 -5.569085e-05 -8.562901e-05 0.000000e+00  
 1.634651e-05 -1.048368e-04 0.000000e+00  
 8.488760e-05 -1.377161e-04 0.000000e+00  
 1.504127e-04 -1.842038e-04 0.000000e+00  
 2.126196e-04 -2.432456e-04 0.000000e+00  
 2.717188e-04 -3.145997e-04 0.000000e+00  
 3.275701e-04 -3.972692e-04 0.000000e+00  
 3.802652e-04 -4.909671e-04 0.000000e+00  
 4.297459e-04 -5.947100e-04 0.000000e+00  
 4.760467e-04 -7.082044e-04 0.000000e+00  
 5.191479e-04 -8.304652e-04 0.000000e+00  
 5.590598e-04 -9.612026e-04 0.000000e+00  
 5.957772e-04 -1.099427e-03 0.000000e+00  
 6.293029e-04 -1.244852e-03 0.000000e+00  
 6.596342e-04 -1.396485e-03 0.000000e+00  
 6.867757e-04 -1.554044e-03 0.000000e+00  
 7.107201e-04 -1.716532e-03 0.000000e+00  
 7.314792e-04 -1.883667e-03 0.000000e+00  
 7.490370e-04 -2.054458e-03 0.000000e+00  
 7.634168e-04 -2.228614e-03 0.000000e+00  
 7.745895e-04 -2.405164e-03 0.000000e+00  
 7.825918e-04 -2.583804e-03 0.000000e+00  
 7.873705e-04 -2.763618e-03 0.000000e+00  
 7.889515e-04 -2.944347e-03 0.000000e+00  
 -1.397500e-04 -1.170000e-04 0.000000e+00  
 -4.940454e-05 -1.204310e-04 0.000000e+00  
 3.661087e-05 -1.378079e-04 0.000000e+00  
 1.190544e-04 -1.694258e-04 0.000000e+00  
 1.975071e-04 -2.142101e-04 0.000000e+00  
 2.722545e-04 -2.719286e-04 0.000000e+00  
 3.430953e-04 -3.416082e-04 0.000000e+00  
 4.101632e-04 -4.229401e-04 0.000000e+00  
 4.733658e-04 -5.149665e-04 0.000000e+00  
 5.327608e-04 -6.173726e-04 0.000000e+00  
 5.883112e-04 -7.291915e-04 0.000000e+00  
 6.400383e-04 -8.501197e-04 0.000000e+00  
 6.879297e-04 -9.791774e-04 0.000000e+00  
 7.319921e-04 -1.116072e-03 0.000000e+00  
 7.722214e-04 -1.259815e-03 0.000000e+00  
 8.086213e-04 -1.410122e-03 0.000000e+00  
 8.411871e-04 -1.565996e-03 0.000000e+00  
 8.699265e-04 -1.727158e-03 0.000000e+00  
 8.948296e-04 -1.892611e-03 0.000000e+00  
 9.159127e-04 -2.062072e-03 0.000000e+00  
 9.331588e-04 -2.234556e-03 0.000000e+00  
 9.465970e-04 -2.409765e-03 0.000000e+00  
 9.562045e-04 -2.586756e-03 0.000000e+00  
 9.620269e-04 -2.765197e-03 0.000000e+00  
 9.640354e-04 -2.944370e-03 0.000000e+00  
  
 