# vtk DataFile Version 1.0 
PolyMesh 
ASCII 
 
DATASET POLYDATA 
 
POINTS 42 float 
-0.000000e+00 -2.000000e+00 0.000000e+00  
 -0.000000e+00 -7.376363e-01 0.000000e+00  
 1.317991e+00 -2.000000e+00 0.000000e+00  
 1.317163e+00 -8.037632e-01 0.000000e+00  
 1.047999e+00 -6.180322e-01 0.000000e+00  
 1.048128e+00 6.180448e-01 0.000000e+00  
 -0.000000e+00 7.376216e-01 0.000000e+00  
 -0.000000e+00 2.000000e+00 0.000000e+00  
 2.627248e+00 -2.000000e+00 0.000000e+00  
 2.171764e+00 -5.578355e-01 0.000000e+00  
 2.609313e+00 -8.132437e-01 0.000000e+00  
 2.171706e+00 5.577590e-01 0.000000e+00  
 1.316999e+00 8.035592e-01 0.000000e+00  
 1.317889e+00 2.000000e+00 0.000000e+00  
 3.838453e+00 -2.000000e+00 0.000000e+00  
 3.372652e+00 -5.215043e-01 0.000000e+00  
 3.949074e+00 -8.392348e-01 0.000000e+00  
 3.372617e+00 5.215051e-01 0.000000e+00  
 2.609078e+00 8.131340e-01 0.000000e+00  
 2.626961e+00 2.000000e+00 0.000000e+00  
 4.424608e+00 -6.597751e-01 0.000000e+00  
 5.285440e+00 -1.313226e+00 0.000000e+00  
 5.296427e+00 -2.000000e+00 0.000000e+00  
 4.724782e+00 5.466000e-05 0.000000e+00  
 4.424507e+00 6.598051e-01 0.000000e+00  
 3.948777e+00 8.392293e-01 0.000000e+00  
 3.838120e+00 2.000000e+00 0.000000e+00  
 6.733251e+00 -2.000000e+00 0.000000e+00  
 8.000000e+00 -2.000000e+00 0.000000e+00  
 5.665150e+00 1.542400e-04 0.000000e+00  
 6.655354e+00 -8.162954e-01 0.000000e+00  
 5.972318e+00 -6.511744e-01 0.000000e+00  
 5.972182e+00 6.513049e-01 0.000000e+00  
 5.285210e+00 1.313502e+00 0.000000e+00  
 5.296153e+00 2.000000e+00 0.000000e+00  
 6.932184e+00 -6.170055e-01 0.000000e+00  
 8.000000e+00 -7.269762e-01 0.000000e+00  
 6.655231e+00 8.165197e-01 0.000000e+00  
 6.932363e+00 6.169809e-01 0.000000e+00  
 6.733204e+00 2.000000e+00 0.000000e+00  
 8.000000e+00 7.269525e-01 0.000000e+00  
 8.000000e+00 2.000000e+00 0.000000e+00  
  
 POLYGONS 20 124 
 5 14  22  21  20  16   
 5 23  29  32  33  24   
 4 35  36  40  38   
 5 27  28  36  35  30   
 5 6  5  12  13  7   
 5 2  8  10  9  3   
 7 31  30  35  38  37  32  29   
 5 22  27  30  31  21   
 5 0  2  3  4  1   
 7 15  16  20  23  24  25  17   
 5 37  38  40  41  39   
 5 12  11  18  19  13   
 5 18  17  25  26  19   
 6 4  3  9  11  12  5   
 4 1  4  5  6   
 6 9  10  15  17  18  11   
 5 20  21  31  29  23   
 5 8  14  16  15  10   
 5 25  24  33  34  26   
 5 33  32  37  39  34   
  
 POINT_DATA 42 
 VECTORS Displacement float 
 1.397500e-04 -1.170000e-04 0.000000e+00  
 6.914770e-05 -1.591514e-05 0.000000e+00  
 -1.215821e-04 -1.609281e-04 0.000000e+00  
 -3.324212e-05 -1.011879e-04 0.000000e+00  
 -1.065504e-05 -7.038411e-05 0.000000e+00  
 1.065957e-05 -7.039198e-05 0.000000e+00  
 -6.914643e-05 -1.591450e-05 0.000000e+00  
 -1.397500e-04 -1.170000e-04 0.000000e+00  
 -3.354846e-04 -3.781105e-04 0.000000e+00  
 -6.318935e-05 -2.318119e-04 0.000000e+00  
 -1.198430e-04 -3.270984e-04 0.000000e+00  
 6.317837e-05 -2.317977e-04 0.000000e+00  
 3.321743e-05 -1.011606e-04 0.000000e+00  
 1.215619e-04 -1.609201e-04 0.000000e+00  
 -4.932121e-04 -6.935554e-04 0.000000e+00  
 -1.028737e-04 -5.149760e-04 0.000000e+00  
 -1.978294e-04 -6.894025e-04 0.000000e+00  
 1.028742e-04 -5.149654e-04 0.000000e+00  
 1.198111e-04 -3.270439e-04 0.000000e+00  
 3.354413e-04 -3.780490e-04 0.000000e+00  
 -1.724945e-04 -8.421698e-04 0.000000e+00  
 -4.008627e-04 -1.157981e-03 0.000000e+00  
 -6.356266e-04 -1.176294e-03 0.000000e+00  
 1.397995e-08 -9.415046e-04 0.000000e+00  
 1.724996e-04 -8.421363e-04 0.000000e+00  
 1.978152e-04 -6.893097e-04 0.000000e+00  
 4.931727e-04 -6.934570e-04 0.000000e+00  
 -7.120633e-04 -1.734840e-03 0.000000e+00  
 -7.324293e-04 -2.259560e-03 0.000000e+00  
 4.717958e-08 -1.292386e-03 0.000000e+00  
 -2.723324e-04 -1.690532e-03 0.000000e+00  
 -2.088611e-04 -1.413499e-03 0.000000e+00  
 2.089013e-04 -1.413446e-03 0.000000e+00  
 4.009398e-04 -1.157899e-03 0.000000e+00  
 6.356094e-04 -1.176192e-03 0.000000e+00  
 -2.098388e-04 -1.805782e-03 0.000000e+00  
 -2.517035e-04 -2.255619e-03 0.000000e+00  
 2.724099e-04 -1.690483e-03 0.000000e+00  
 2.098300e-04 -1.805856e-03 0.000000e+00  
 7.120638e-04 -1.734820e-03 0.000000e+00  
 2.516936e-04 -2.255619e-03 0.000000e+00  
 7.324307e-04 -2.259561e-03 0.000000e+00  
  
 