# vtk DataFile Version 1.0 
PolyMesh 
ASCII 
 
DATASET POLYDATA 
 
POINTS 242 float 
4.000000e+01 0.000000e+00 0.000000e+00  
 4.000000e+01 1.000000e+00 0.000000e+00  
 4.000000e+01 2.000000e+00 0.000000e+00  
 3.743411e+01 0.000000e+00 0.000000e+00  
 3.743411e+01 1.000000e+00 0.000000e+00  
 4.000000e+01 3.000000e+00 0.000000e+00  
 3.743411e+01 2.000000e+00 0.000000e+00  
 3.743411e+01 3.000000e+00 0.000000e+00  
 4.000000e+01 4.000000e+00 0.000000e+00  
 3.743411e+01 4.000000e+00 0.000000e+00  
 4.000000e+01 5.000000e+00 0.000000e+00  
 3.488038e+01 0.000000e+00 0.000000e+00  
 3.488038e+01 1.000000e+00 0.000000e+00  
 3.488038e+01 2.000000e+00 0.000000e+00  
 3.743411e+01 5.000000e+00 0.000000e+00  
 3.488038e+01 3.000000e+00 0.000000e+00  
 4.000000e+01 6.000000e+00 0.000000e+00  
 3.488038e+01 4.000000e+00 0.000000e+00  
 3.743411e+01 6.000000e+00 0.000000e+00  
 4.000000e+01 7.000000e+00 0.000000e+00  
 3.488038e+01 5.000000e+00 0.000000e+00  
 3.743411e+01 7.000000e+00 0.000000e+00  
 3.235074e+01 0.000000e+00 0.000000e+00  
 3.235074e+01 1.000000e+00 0.000000e+00  
 3.488038e+01 6.000000e+00 0.000000e+00  
 3.235074e+01 2.000000e+00 0.000000e+00  
 4.000000e+01 8.000000e+00 0.000000e+00  
 3.235074e+01 3.000000e+00 0.000000e+00  
 3.743411e+01 8.000000e+00 0.000000e+00  
 3.235074e+01 4.000000e+00 0.000000e+00  
 3.488038e+01 7.000000e+00 0.000000e+00  
 4.000000e+01 9.000000e+00 0.000000e+00  
 3.235074e+01 5.000000e+00 0.000000e+00  
 3.743411e+01 9.000000e+00 0.000000e+00  
 3.488038e+01 8.000000e+00 0.000000e+00  
 3.235074e+01 6.000000e+00 0.000000e+00  
 4.000000e+01 1.000000e+01 0.000000e+00  
 2.985673e+01 0.000000e+00 0.000000e+00  
 2.985673e+01 1.000000e+00 0.000000e+00  
 3.743411e+01 1.000000e+01 0.000000e+00  
 2.985673e+01 2.000000e+00 0.000000e+00  
 3.488038e+01 9.000000e+00 0.000000e+00  
 3.235074e+01 7.000000e+00 0.000000e+00  
 2.985673e+01 3.000000e+00 0.000000e+00  
 2.985673e+01 4.000000e+00 0.000000e+00  
 3.235074e+01 8.000000e+00 0.000000e+00  
 3.488038e+01 1.000000e+01 0.000000e+00  
 2.985673e+01 5.000000e+00 0.000000e+00  
 2.985673e+01 6.000000e+00 0.000000e+00  
 3.235074e+01 9.000000e+00 0.000000e+00  
 2.985673e+01 7.000000e+00 0.000000e+00  
 3.235074e+01 1.000000e+01 0.000000e+00  
 2.740934e+01 0.000000e+00 0.000000e+00  
 2.740934e+01 1.000000e+00 0.000000e+00  
 2.740934e+01 2.000000e+00 0.000000e+00  
 2.985673e+01 8.000000e+00 0.000000e+00  
 2.740934e+01 3.000000e+00 0.000000e+00  
 2.740934e+01 4.000000e+00 0.000000e+00  
 2.740934e+01 5.000000e+00 0.000000e+00  
 2.985673e+01 9.000000e+00 0.000000e+00  
 2.740934e+01 6.000000e+00 0.000000e+00  
 2.985673e+01 1.000000e+01 0.000000e+00  
 2.740934e+01 7.000000e+00 0.000000e+00  
 2.740934e+01 8.000000e+00 0.000000e+00  
 2.501886e+01 0.000000e+00 0.000000e+00  
 2.501886e+01 1.000000e+00 0.000000e+00  
 2.501886e+01 2.000000e+00 0.000000e+00  
 2.501886e+01 3.000000e+00 0.000000e+00  
 2.740934e+01 9.000000e+00 0.000000e+00  
 2.501886e+01 4.000000e+00 0.000000e+00  
 2.501886e+01 5.000000e+00 0.000000e+00  
 2.740934e+01 1.000000e+01 0.000000e+00  
 2.501886e+01 6.000000e+00 0.000000e+00  
 2.501886e+01 7.000000e+00 0.000000e+00  
 2.501886e+01 8.000000e+00 0.000000e+00  
 2.269479e+01 0.000000e+00 0.000000e+00  
 2.269479e+01 1.000000e+00 0.000000e+00  
 2.269479e+01 2.000000e+00 0.000000e+00  
 2.501886e+01 9.000000e+00 0.000000e+00  
 2.269479e+01 3.000000e+00 0.000000e+00  
 2.269479e+01 4.000000e+00 0.000000e+00  
 2.501886e+01 1.000000e+01 0.000000e+00  
 2.269479e+01 5.000000e+00 0.000000e+00  
 2.269479e+01 6.000000e+00 0.000000e+00  
 2.269479e+01 7.000000e+00 0.000000e+00  
 2.269479e+01 8.000000e+00 0.000000e+00  
 2.269479e+01 9.000000e+00 0.000000e+00  
 2.044568e+01 0.000000e+00 0.000000e+00  
 2.044568e+01 1.000000e+00 0.000000e+00  
 2.044568e+01 2.000000e+00 0.000000e+00  
 2.044568e+01 3.000000e+00 0.000000e+00  
 2.044568e+01 4.000000e+00 0.000000e+00  
 2.269479e+01 1.000000e+01 0.000000e+00  
 2.044568e+01 5.000000e+00 0.000000e+00  
 2.044568e+01 6.000000e+00 0.000000e+00  
 2.044568e+01 7.000000e+00 0.000000e+00  
 2.044568e+01 8.000000e+00 0.000000e+00  
 2.044568e+01 9.000000e+00 0.000000e+00  
 1.827911e+01 0.000000e+00 0.000000e+00  
 1.827911e+01 1.000000e+00 0.000000e+00  
 1.827911e+01 2.000000e+00 0.000000e+00  
 1.827911e+01 3.000000e+00 0.000000e+00  
 2.044568e+01 1.000000e+01 0.000000e+00  
 1.827911e+01 4.000000e+00 0.000000e+00  
 1.827911e+01 5.000000e+00 0.000000e+00  
 1.827911e+01 6.000000e+00 0.000000e+00  
 1.827911e+01 7.000000e+00 0.000000e+00  
 1.827911e+01 8.000000e+00 0.000000e+00  
 1.827911e+01 9.000000e+00 0.000000e+00  
 1.620158e+01 0.000000e+00 0.000000e+00  
 1.620158e+01 1.000000e+00 0.000000e+00  
 1.620158e+01 2.000000e+00 0.000000e+00  
 1.827911e+01 1.000000e+01 0.000000e+00  
 1.620158e+01 3.000000e+00 0.000000e+00  
 1.620158e+01 4.000000e+00 0.000000e+00  
 1.620158e+01 5.000000e+00 0.000000e+00  
 1.620158e+01 6.000000e+00 0.000000e+00  
 1.620158e+01 7.000000e+00 0.000000e+00  
 1.620158e+01 8.000000e+00 0.000000e+00  
 1.620158e+01 9.000000e+00 0.000000e+00  
 1.421849e+01 0.000000e+00 0.000000e+00  
 1.421849e+01 1.000000e+00 0.000000e+00  
 1.620158e+01 1.000000e+01 0.000000e+00  
 1.421849e+01 2.000000e+00 0.000000e+00  
 1.421849e+01 3.000000e+00 0.000000e+00  
 1.421849e+01 4.000000e+00 0.000000e+00  
 1.421849e+01 5.000000e+00 0.000000e+00  
 1.421849e+01 6.000000e+00 0.000000e+00  
 1.421849e+01 7.000000e+00 0.000000e+00  
 1.421849e+01 8.000000e+00 0.000000e+00  
 1.421849e+01 9.000000e+00 0.000000e+00  
 1.421849e+01 1.000000e+01 0.000000e+00  
 1.233409e+01 0.000000e+00 0.000000e+00  
 1.233409e+01 1.000000e+00 0.000000e+00  
 1.233409e+01 2.000000e+00 0.000000e+00  
 1.233409e+01 3.000000e+00 0.000000e+00  
 1.233409e+01 4.000000e+00 0.000000e+00  
 1.233409e+01 5.000000e+00 0.000000e+00  
 1.233409e+01 6.000000e+00 0.000000e+00  
 1.233409e+01 7.000000e+00 0.000000e+00  
 1.233409e+01 8.000000e+00 0.000000e+00  
 1.233409e+01 9.000000e+00 0.000000e+00  
 1.233409e+01 1.000000e+01 0.000000e+00  
 1.055156e+01 0.000000e+00 0.000000e+00  
 1.055156e+01 1.000000e+00 0.000000e+00  
 1.055156e+01 2.000000e+00 0.000000e+00  
 1.055156e+01 3.000000e+00 0.000000e+00  
 1.055156e+01 4.000000e+00 0.000000e+00  
 1.055156e+01 5.000000e+00 0.000000e+00  
 1.055156e+01 6.000000e+00 0.000000e+00  
 1.055156e+01 7.000000e+00 0.000000e+00  
 1.055156e+01 8.000000e+00 0.000000e+00  
 1.055156e+01 9.000000e+00 0.000000e+00  
 1.055156e+01 1.000000e+01 0.000000e+00  
 8.872942e+00 0.000000e+00 0.000000e+00  
 8.872942e+00 1.000000e+00 0.000000e+00  
 8.872942e+00 2.000000e+00 0.000000e+00  
 8.872942e+00 3.000000e+00 0.000000e+00  
 8.872942e+00 4.000000e+00 0.000000e+00  
 8.872942e+00 5.000000e+00 0.000000e+00  
 8.872942e+00 6.000000e+00 0.000000e+00  
 8.872942e+00 7.000000e+00 0.000000e+00  
 8.872942e+00 8.000000e+00 0.000000e+00  
 8.872942e+00 9.000000e+00 0.000000e+00  
 8.872942e+00 1.000000e+01 0.000000e+00  
 7.299238e+00 0.000000e+00 0.000000e+00  
 7.299238e+00 1.000000e+00 0.000000e+00  
 7.299238e+00 2.000000e+00 0.000000e+00  
 7.299238e+00 3.000000e+00 0.000000e+00  
 7.299238e+00 4.000000e+00 0.000000e+00  
 7.299238e+00 5.000000e+00 0.000000e+00  
 7.299238e+00 6.000000e+00 0.000000e+00  
 7.299238e+00 7.000000e+00 0.000000e+00  
 7.299238e+00 8.000000e+00 0.000000e+00  
 7.299238e+00 9.000000e+00 0.000000e+00  
 5.830447e+00 0.000000e+00 0.000000e+00  
 5.830447e+00 1.000000e+00 0.000000e+00  
 7.299238e+00 1.000000e+01 0.000000e+00  
 5.830447e+00 2.000000e+00 0.000000e+00  
 5.830447e+00 3.000000e+00 0.000000e+00  
 5.830447e+00 4.000000e+00 0.000000e+00  
 5.830447e+00 5.000000e+00 0.000000e+00  
 5.830447e+00 6.000000e+00 0.000000e+00  
 5.830447e+00 7.000000e+00 0.000000e+00  
 5.830447e+00 8.000000e+00 0.000000e+00  
 5.830447e+00 9.000000e+00 0.000000e+00  
 4.465641e+00 0.000000e+00 0.000000e+00  
 4.465641e+00 1.000000e+00 0.000000e+00  
 4.465641e+00 2.000000e+00 0.000000e+00  
 5.830447e+00 1.000000e+01 0.000000e+00  
 4.465641e+00 3.000000e+00 0.000000e+00  
 4.465641e+00 4.000000e+00 0.000000e+00  
 4.465641e+00 5.000000e+00 0.000000e+00  
 4.465641e+00 6.000000e+00 0.000000e+00  
 4.465641e+00 7.000000e+00 0.000000e+00  
 4.465641e+00 8.000000e+00 0.000000e+00  
 4.465641e+00 9.000000e+00 0.000000e+00  
 3.203045e+00 0.000000e+00 0.000000e+00  
 3.203045e+00 1.000000e+00 0.000000e+00  
 3.203045e+00 2.000000e+00 0.000000e+00  
 4.465641e+00 1.000000e+01 0.000000e+00  
 3.203045e+00 3.000000e+00 0.000000e+00  
 3.203045e+00 4.000000e+00 0.000000e+00  
 3.203045e+00 5.000000e+00 0.000000e+00  
 3.203045e+00 6.000000e+00 0.000000e+00  
 3.203045e+00 7.000000e+00 0.000000e+00  
 3.203045e+00 8.000000e+00 0.000000e+00  
 3.203045e+00 9.000000e+00 0.000000e+00  
 2.040128e+00 0.000000e+00 0.000000e+00  
 2.040128e+00 1.000000e+00 0.000000e+00  
 2.040128e+00 2.000000e+00 0.000000e+00  
 2.040128e+00 3.000000e+00 0.000000e+00  
 3.203045e+00 1.000000e+01 0.000000e+00  
 2.040128e+00 4.000000e+00 0.000000e+00  
 2.040128e+00 5.000000e+00 0.000000e+00  
 2.040128e+00 6.000000e+00 0.000000e+00  
 2.040128e+00 7.000000e+00 0.000000e+00  
 2.040128e+00 8.000000e+00 0.000000e+00  
 2.040128e+00 9.000000e+00 0.000000e+00  
 9.736974e-01 0.000000e+00 0.000000e+00  
 9.736974e-01 1.000000e+00 0.000000e+00  
 9.736974e-01 2.000000e+00 0.000000e+00  
 9.736974e-01 3.000000e+00 0.000000e+00  
 9.736974e-01 4.000000e+00 0.000000e+00  
 2.040128e+00 1.000000e+01 0.000000e+00  
 9.736974e-01 5.000000e+00 0.000000e+00  
 9.736974e-01 6.000000e+00 0.000000e+00  
 9.736974e-01 7.000000e+00 0.000000e+00  
 9.736974e-01 8.000000e+00 0.000000e+00  
 0.000000e+00 0.000000e+00 0.000000e+00  
 0.000000e+00 1.000000e+00 0.000000e+00  
 0.000000e+00 2.000000e+00 0.000000e+00  
 9.736974e-01 9.000000e+00 0.000000e+00  
 0.000000e+00 3.000000e+00 0.000000e+00  
 0.000000e+00 4.000000e+00 0.000000e+00  
 9.736974e-01 1.000000e+01 0.000000e+00  
 0.000000e+00 5.000000e+00 0.000000e+00  
 0.000000e+00 6.000000e+00 0.000000e+00  
 0.000000e+00 7.000000e+00 0.000000e+00  
 0.000000e+00 8.000000e+00 0.000000e+00  
 0.000000e+00 9.000000e+00 0.000000e+00  
 0.000000e+00 1.000000e+01 0.000000e+00  
  
 POLYGONS 210 1050 
 4 219  220  230  229   
 4 208  209  220  219   
 4 197  198  209  208   
 4 186  187  198  197   
 4 175  176  187  186   
 4 165  166  176  175   
 4 154  155  166  165   
 4 143  144  155  154   
 4 132  133  144  143   
 4 120  121  133  132   
 4 109  110  121  120   
 4 98  99  110  109   
 4 87  88  99  98   
 4 75  76  88  87   
 4 64  65  76  75   
 4 52  53  65  64   
 4 37  38  53  52   
 4 22  23  38  37   
 4 11  12  23  22   
 4 3  4  12  11   
 4 0  1  4  3   
 4 220  221  231  230   
 4 209  210  221  220   
 4 198  199  210  209   
 4 187  188  199  198   
 4 176  178  188  187   
 4 166  167  178  176   
 4 155  156  167  166   
 4 144  145  156  155   
 4 133  134  145  144   
 4 121  123  134  133   
 4 110  111  123  121   
 4 99  100  111  110   
 4 88  89  100  99   
 4 76  77  89  88   
 4 65  66  77  76   
 4 53  54  66  65   
 4 38  40  54  53   
 4 23  25  40  38   
 4 12  13  25  23   
 4 4  6  13  12   
 4 1  2  6  4   
 4 221  222  233  231   
 4 210  211  222  221   
 4 199  201  211  210   
 4 188  190  201  199   
 4 178  179  190  188   
 4 167  168  179  178   
 4 156  157  168  167   
 4 145  146  157  156   
 4 134  135  146  145   
 4 123  124  135  134   
 4 111  113  124  123   
 4 100  101  113  111   
 4 89  90  101  100   
 4 77  79  90  89   
 4 66  67  79  77   
 4 54  56  67  66   
 4 40  43  56  54   
 4 25  27  43  40   
 4 13  15  27  25   
 4 6  7  15  13   
 4 2  5  7  6   
 4 222  223  234  233   
 4 211  213  223  222   
 4 201  202  213  211   
 4 190  191  202  201   
 4 179  180  191  190   
 4 168  169  180  179   
 4 157  158  169  168   
 4 146  147  158  157   
 4 135  136  147  146   
 4 124  125  136  135   
 4 113  114  125  124   
 4 101  103  114  113   
 4 90  91  103  101   
 4 79  80  91  90   
 4 67  69  80  79   
 4 56  57  69  67   
 4 43  44  57  56   
 4 27  29  44  43   
 4 15  17  29  27   
 4 7  9  17  15   
 4 5  8  9  7   
 4 223  225  236  234   
 4 213  214  225  223   
 4 202  203  214  213   
 4 191  192  203  202   
 4 180  181  192  191   
 4 169  170  181  180   
 4 158  159  170  169   
 4 147  148  159  158   
 4 136  137  148  147   
 4 125  126  137  136   
 4 114  115  126  125   
 4 103  104  115  114   
 4 91  93  104  103   
 4 80  82  93  91   
 4 69  70  82  80   
 4 57  58  70  69   
 4 44  47  58  57   
 4 29  32  47  44   
 4 17  20  32  29   
 4 9  14  20  17   
 4 8  10  14  9   
 4 225  226  237  236   
 4 214  215  226  225   
 4 203  204  215  214   
 4 192  193  204  203   
 4 181  182  193  192   
 4 170  171  182  181   
 4 159  160  171  170   
 4 148  149  160  159   
 4 137  138  149  148   
 4 126  127  138  137   
 4 115  116  127  126   
 4 104  105  116  115   
 4 93  94  105  104   
 4 82  83  94  93   
 4 70  72  83  82   
 4 58  60  72  70   
 4 47  48  60  58   
 4 32  35  48  47   
 4 20  24  35  32   
 4 14  18  24  20   
 4 10  16  18  14   
 4 226  227  238  237   
 4 215  216  227  226   
 4 204  205  216  215   
 4 193  194  205  204   
 4 182  183  194  193   
 4 171  172  183  182   
 4 160  161  172  171   
 4 149  150  161  160   
 4 138  139  150  149   
 4 127  128  139  138   
 4 116  117  128  127   
 4 105  106  117  116   
 4 94  95  106  105   
 4 83  84  95  94   
 4 72  73  84  83   
 4 60  62  73  72   
 4 48  50  62  60   
 4 35  42  50  48   
 4 24  30  42  35   
 4 18  21  30  24   
 4 16  19  21  18   
 4 227  228  239  238   
 4 216  217  228  227   
 4 205  206  217  216   
 4 194  195  206  205   
 4 183  184  195  194   
 4 172  173  184  183   
 4 161  162  173  172   
 4 150  151  162  161   
 4 139  140  151  150   
 4 128  129  140  139   
 4 117  118  129  128   
 4 106  107  118  117   
 4 95  96  107  106   
 4 84  85  96  95   
 4 73  74  85  84   
 4 62  63  74  73   
 4 50  55  63  62   
 4 42  45  55  50   
 4 30  34  45  42   
 4 21  28  34  30   
 4 19  26  28  21   
 4 228  232  240  239   
 4 217  218  232  228   
 4 206  207  218  217   
 4 195  196  207  206   
 4 184  185  196  195   
 4 173  174  185  184   
 4 162  163  174  173   
 4 151  152  163  162   
 4 140  141  152  151   
 4 129  130  141  140   
 4 118  119  130  129   
 4 107  108  119  118   
 4 96  97  108  107   
 4 85  86  97  96   
 4 74  78  86  85   
 4 63  68  78  74   
 4 55  59  68  63   
 4 45  49  59  55   
 4 34  41  49  45   
 4 28  33  41  34   
 4 26  31  33  28   
 4 232  235  241  240   
 4 218  224  235  232   
 4 207  212  224  218   
 4 196  200  212  207   
 4 185  189  200  196   
 4 174  177  189  185   
 4 163  164  177  174   
 4 152  153  164  163   
 4 141  142  153  152   
 4 130  131  142  141   
 4 119  122  131  130   
 4 108  112  122  119   
 4 97  102  112  108   
 4 86  92  102  97   
 4 78  81  92  86   
 4 68  71  81  78   
 4 59  61  71  68   
 4 49  51  61  59   
 4 41  46  51  49   
 4 33  39  46  41   
 4 31  36  39  33   
  
 POINT_DATA 242 
 VECTORS Displacement float 
 -1.130444e-02 -6.283539e-02 0.000000e+00  
 -8.991310e-03 -6.282287e-02 0.000000e+00  
 -6.713939e-03 -6.280110e-02 0.000000e+00  
 -1.124430e-02 -5.686252e-02 0.000000e+00  
 -8.949221e-03 -5.685380e-02 0.000000e+00  
 -4.461936e-03 -6.277983e-02 0.000000e+00  
 -6.683096e-03 -5.684876e-02 0.000000e+00  
 -4.441329e-03 -5.684528e-02 0.000000e+00  
 -2.226760e-03 -6.276497e-02 0.000000e+00  
 -2.216393e-03 -5.684307e-02 0.000000e+00  
 1.141823e-13 -6.275969e-02 0.000000e+00  
 -1.109784e-02 -5.101895e-02 0.000000e+00  
 -8.840362e-03 -5.099945e-02 0.000000e+00  
 -6.606763e-03 -5.098521e-02 0.000000e+00  
 -2.744711e-11 -5.684229e-02 0.000000e+00  
 -4.392797e-03 -5.097584e-02 0.000000e+00  
 2.226760e-03 -6.276497e-02 0.000000e+00  
 -2.192791e-03 -5.097057e-02 0.000000e+00  
 2.216393e-03 -5.684307e-02 0.000000e+00  
 4.461936e-03 -6.277983e-02 0.000000e+00  
 -2.479515e-11 -5.096886e-02 0.000000e+00  
 4.441329e-03 -5.684528e-02 0.000000e+00  
 -1.087265e-02 -4.532328e-02 0.000000e+00  
 -8.659704e-03 -4.529458e-02 0.000000e+00  
 2.192791e-03 -5.097057e-02 0.000000e+00  
 -6.472470e-03 -4.527217e-02 0.000000e+00  
 6.713939e-03 -6.280110e-02 0.000000e+00  
 -4.304293e-03 -4.525626e-02 0.000000e+00  
 6.683096e-03 -5.684876e-02 0.000000e+00  
 -2.148915e-03 -4.524681e-02 0.000000e+00  
 4.392797e-03 -5.097584e-02 0.000000e+00  
 8.991310e-03 -6.282287e-02 0.000000e+00  
 -2.096526e-11 -4.524367e-02 0.000000e+00  
 8.949221e-03 -5.685380e-02 0.000000e+00  
 6.606763e-03 -5.098521e-02 0.000000e+00  
 2.148915e-03 -4.524681e-02 0.000000e+00  
 1.130444e-02 -6.283539e-02 0.000000e+00  
 -1.056368e-02 -3.984005e-02 0.000000e+00  
 -8.412345e-03 -3.980189e-02 0.000000e+00  
 1.124430e-02 -5.686252e-02 0.000000e+00  
 -6.286760e-03 -3.977219e-02 0.000000e+00  
 8.840362e-03 -5.099945e-02 0.000000e+00  
 4.304293e-03 -4.525626e-02 0.000000e+00  
 -4.180490e-03 -3.975093e-02 0.000000e+00  
 -2.087045e-03 -3.973816e-02 0.000000e+00  
 6.472470e-03 -4.527217e-02 0.000000e+00  
 1.109784e-02 -5.101895e-02 0.000000e+00  
 -1.545745e-11 -3.973391e-02 0.000000e+00  
 2.087045e-03 -3.973816e-02 0.000000e+00  
 8.659704e-03 -4.529458e-02 0.000000e+00  
 4.180490e-03 -3.975093e-02 0.000000e+00  
 1.087265e-02 -4.532328e-02 0.000000e+00  
 -1.017578e-02 -3.462974e-02 0.000000e+00  
 -8.101888e-03 -3.458233e-02 0.000000e+00  
 -6.053826e-03 -3.454542e-02 0.000000e+00  
 6.286760e-03 -3.977219e-02 0.000000e+00  
 -4.025126e-03 -3.451904e-02 0.000000e+00  
 -2.009337e-03 -3.450321e-02 0.000000e+00  
 -9.850710e-12 -3.449792e-02 0.000000e+00  
 8.412345e-03 -3.980189e-02 0.000000e+00  
 2.009337e-03 -3.450321e-02 0.000000e+00  
 1.056368e-02 -3.984005e-02 0.000000e+00  
 4.025126e-03 -3.451904e-02 0.000000e+00  
 6.053826e-03 -3.454542e-02 0.000000e+00  
 -9.715737e-03 -2.974335e-02 0.000000e+00  
 -7.733732e-03 -2.968688e-02 0.000000e+00  
 -5.777629e-03 -2.964292e-02 0.000000e+00  
 -3.840957e-03 -2.961151e-02 0.000000e+00  
 8.101888e-03 -3.458233e-02 0.000000e+00  
 -1.917240e-03 -2.959265e-02 0.000000e+00  
 -6.291551e-12 -2.958637e-02 0.000000e+00  
 1.017578e-02 -3.462974e-02 0.000000e+00  
 1.917240e-03 -2.959265e-02 0.000000e+00  
 3.840957e-03 -2.961151e-02 0.000000e+00  
 5.777629e-03 -2.964292e-02 0.000000e+00  
 -9.191370e-03 -2.522154e-02 0.000000e+00  
 -7.314102e-03 -2.515623e-02 0.000000e+00  
 -5.462828e-03 -2.510539e-02 0.000000e+00  
 7.733732e-03 -2.968687e-02 0.000000e+00  
 -3.631052e-03 -2.506906e-02 0.000000e+00  
 -1.812276e-03 -2.504726e-02 0.000000e+00  
 9.715737e-03 -2.974335e-02 0.000000e+00  
 6.949173e-14 -2.503999e-02 0.000000e+00  
 1.812276e-03 -2.504726e-02 0.000000e+00  
 3.631052e-03 -2.506906e-02 0.000000e+00  
 5.462828e-03 -2.510539e-02 0.000000e+00  
 7.314102e-03 -2.515623e-02 0.000000e+00  
 -8.611285e-03 -2.109406e-02 0.000000e+00  
 -6.849889e-03 -2.102016e-02 0.000000e+00  
 -5.114584e-03 -2.096264e-02 0.000000e+00  
 -3.398849e-03 -2.092153e-02 0.000000e+00  
 -1.696163e-03 -2.089686e-02 0.000000e+00  
 9.191370e-03 -2.522154e-02 0.000000e+00  
 4.183747e-12 -2.088864e-02 0.000000e+00  
 1.696163e-03 -2.089686e-02 0.000000e+00  
 3.398849e-03 -2.092153e-02 0.000000e+00  
 5.114584e-03 -2.096264e-02 0.000000e+00  
 6.849889e-03 -2.102016e-02 0.000000e+00  
 -7.984676e-03 -1.737954e-02 0.000000e+00  
 -6.348452e-03 -1.729733e-02 0.000000e+00  
 -4.738420e-03 -1.723335e-02 0.000000e+00  
 -3.148032e-03 -1.718763e-02 0.000000e+00  
 8.611285e-03 -2.109406e-02 0.000000e+00  
 -1.570742e-03 -1.716019e-02 0.000000e+00  
 7.224324e-12 -1.715104e-02 0.000000e+00  
 1.570742e-03 -1.716019e-02 0.000000e+00  
 3.148032e-03 -1.718763e-02 0.000000e+00  
 4.738420e-03 -1.723335e-02 0.000000e+00  
 6.348452e-03 -1.729733e-02 0.000000e+00  
 -7.321077e-03 -1.408578e-02 0.000000e+00  
 -5.817424e-03 -1.399557e-02 0.000000e+00  
 -4.340062e-03 -1.392537e-02 0.000000e+00  
 7.984676e-03 -1.737954e-02 0.000000e+00  
 -2.882420e-03 -1.387520e-02 0.000000e+00  
 -1.437924e-03 -1.384510e-02 0.000000e+00  
 9.425144e-12 -1.383506e-02 0.000000e+00  
 1.437924e-03 -1.384510e-02 0.000000e+00  
 2.882420e-03 -1.387520e-02 0.000000e+00  
 4.340062e-03 -1.392537e-02 0.000000e+00  
 5.817424e-03 -1.399557e-02 0.000000e+00  
 -6.630119e-03 -1.121040e-02 0.000000e+00  
 -5.264513e-03 -1.111253e-02 0.000000e+00  
 7.321077e-03 -1.408578e-02 0.000000e+00  
 -3.925298e-03 -1.103637e-02 0.000000e+00  
 -2.605873e-03 -1.098195e-02 0.000000e+00  
 -1.299639e-03 -1.094929e-02 0.000000e+00  
 1.161072e-11 -1.093840e-02 0.000000e+00  
 1.299639e-03 -1.094929e-02 0.000000e+00  
 2.605873e-03 -1.098195e-02 0.000000e+00  
 3.925298e-03 -1.103637e-02 0.000000e+00  
 5.264513e-03 -1.111253e-02 0.000000e+00  
 6.630119e-03 -1.121040e-02 0.000000e+00  
 -5.921291e-03 -8.741969e-03 0.000000e+00  
 -4.697321e-03 -8.636791e-03 0.000000e+00  
 -3.499830e-03 -8.554947e-03 0.000000e+00  
 -2.322192e-03 -8.496466e-03 0.000000e+00  
 -1.157788e-03 -8.461367e-03 0.000000e+00  
 1.087477e-11 -8.449666e-03 0.000000e+00  
 1.157788e-03 -8.461367e-03 0.000000e+00  
 2.322192e-03 -8.496466e-03 0.000000e+00  
 3.499830e-03 -8.554947e-03 0.000000e+00  
 4.697321e-03 -8.636791e-03 0.000000e+00  
 5.921291e-03 -8.741969e-03 0.000000e+00  
 -5.203738e-03 -6.661299e-03 0.000000e+00  
 -4.123171e-03 -6.549183e-03 0.000000e+00  
 -3.069141e-03 -6.461933e-03 0.000000e+00  
 -2.035018e-03 -6.399570e-03 0.000000e+00  
 -1.014183e-03 -6.362129e-03 0.000000e+00  
 1.050448e-11 -6.349644e-03 0.000000e+00  
 1.014183e-03 -6.362129e-03 0.000000e+00  
 2.035018e-03 -6.399570e-03 0.000000e+00  
 3.069141e-03 -6.461933e-03 0.000000e+00  
 4.123171e-03 -6.549183e-03 0.000000e+00  
 5.203738e-03 -6.661299e-03 0.000000e+00  
 -4.486122e-03 -4.942980e-03 0.000000e+00  
 -3.548980e-03 -4.824315e-03 0.000000e+00  
 -2.638346e-03 -4.731911e-03 0.000000e+00  
 -1.747694e-03 -4.665786e-03 0.000000e+00  
 -8.704677e-04 -4.626037e-03 0.000000e+00  
 1.041689e-11 -4.612771e-03 0.000000e+00  
 8.704677e-04 -4.626037e-03 0.000000e+00  
 1.747694e-03 -4.665786e-03 0.000000e+00  
 2.638346e-03 -4.731912e-03 0.000000e+00  
 3.548980e-03 -4.824315e-03 0.000000e+00  
 4.486122e-03 -4.942980e-03 0.000000e+00  
 -3.776606e-03 -3.556913e-03 0.000000e+00  
 -2.981159e-03 -3.432122e-03 0.000000e+00  
 -2.212019e-03 -3.334755e-03 0.000000e+00  
 -1.463091e-03 -3.264872e-03 0.000000e+00  
 -7.280109e-04 -3.222743e-03 0.000000e+00  
 8.471291e-12 -3.208663e-03 0.000000e+00  
 7.280109e-04 -3.222743e-03 0.000000e+00  
 1.463091e-03 -3.264872e-03 0.000000e+00  
 2.212019e-03 -3.334755e-03 0.000000e+00  
 2.981159e-03 -3.432122e-03 0.000000e+00  
 -3.082995e-03 -2.469623e-03 0.000000e+00  
 -2.425509e-03 -2.339175e-03 0.000000e+00  
 3.776606e-03 -3.556913e-03 0.000000e+00  
 -1.794012e-03 -2.237000e-03 0.000000e+00  
 -1.183497e-03 -2.163310e-03 0.000000e+00  
 -5.878824e-04 -2.118767e-03 0.000000e+00  
 6.972221e-12 -2.103857e-03 0.000000e+00  
 5.878824e-04 -2.118767e-03 0.000000e+00  
 1.183497e-03 -2.163310e-03 0.000000e+00  
 1.794012e-03 -2.237000e-03 0.000000e+00  
 2.425509e-03 -2.339175e-03 0.000000e+00  
 -2.412951e-03 -1.644882e-03 0.000000e+00  
 -1.886990e-03 -1.509465e-03 0.000000e+00  
 -1.387363e-03 -1.402723e-03 0.000000e+00  
 3.082995e-03 -2.469623e-03 0.000000e+00  
 -9.109320e-04 -1.325823e-03 0.000000e+00  
 -4.511930e-04 -1.279561e-03 0.000000e+00  
 5.563875e-12 -1.264182e-03 0.000000e+00  
 4.511930e-04 -1.279561e-03 0.000000e+00  
 9.109320e-04 -1.325823e-03 0.000000e+00  
 1.387363e-03 -1.402723e-03 0.000000e+00  
 1.886990e-03 -1.509465e-03 0.000000e+00  
 -1.773763e-03 -1.043734e-03 0.000000e+00  
 -1.369019e-03 -9.036850e-04 0.000000e+00  
 -9.948667e-04 -7.941661e-04 0.000000e+00  
 2.412951e-03 -1.644882e-03 0.000000e+00  
 -6.484631e-04 -7.170152e-04 0.000000e+00  
 -3.202065e-04 -6.724991e-04 0.000000e+00  
 4.017241e-12 -6.580067e-04 0.000000e+00  
 3.202065e-04 -6.724991e-04 0.000000e+00  
 6.484631e-04 -7.170152e-04 0.000000e+00  
 9.948667e-04 -7.941661e-04 0.000000e+00  
 1.369019e-03 -9.036850e-04 0.000000e+00  
 -1.171193e-03 -6.197309e-04 0.000000e+00  
 -8.725598e-04 -4.789372e-04 0.000000e+00  
 -6.213574e-04 -3.714153e-04 0.000000e+00  
 -4.034651e-04 -3.057441e-04 0.000000e+00  
 1.773763e-03 -1.043734e-03 0.000000e+00  
 -1.989083e-04 -2.703618e-04 0.000000e+00  
 2.503746e-12 -2.591829e-04 0.000000e+00  
 1.989083e-04 -2.703618e-04 0.000000e+00  
 4.034651e-04 -3.057441e-04 0.000000e+00  
 6.213574e-04 -3.714153e-04 0.000000e+00  
 8.725598e-04 -4.789372e-04 0.000000e+00  
 -5.979518e-04 -3.251411e-04 0.000000e+00  
 -3.971300e-04 -1.759984e-04 0.000000e+00  
 -2.854027e-04 -1.072439e-04 0.000000e+00  
 -1.854055e-04 -7.094080e-05 0.000000e+00  
 -9.161127e-05 -5.240417e-05 0.000000e+00  
 1.171193e-03 -6.197309e-04 0.000000e+00  
 1.175569e-12 -4.667367e-05 0.000000e+00  
 9.161127e-05 -5.240417e-05 0.000000e+00  
 1.854055e-04 -7.094080e-05 0.000000e+00  
 2.854027e-04 -1.072439e-04 0.000000e+00  
 0.000000e+00 0.000000e+00 0.000000e+00  
 0.000000e+00 0.000000e+00 0.000000e+00  
 0.000000e+00 0.000000e+00 0.000000e+00  
 3.971300e-04 -1.759984e-04 0.000000e+00  
 0.000000e+00 0.000000e+00 0.000000e+00  
 0.000000e+00 0.000000e+00 0.000000e+00  
 5.979518e-04 -3.251411e-04 0.000000e+00  
 0.000000e+00 0.000000e+00 0.000000e+00  
 0.000000e+00 0.000000e+00 0.000000e+00  
 0.000000e+00 0.000000e+00 0.000000e+00  
 0.000000e+00 0.000000e+00 0.000000e+00  
 0.000000e+00 0.000000e+00 0.000000e+00  
 0.000000e+00 0.000000e+00 0.000000e+00  
  
 