# vtk DataFile Version 1.0 
PolyMesh 
ASCII 
 
DATASET POLYDATA 
 
POINTS 3751 float 
4.000000e+01 0.000000e+00 0.000000e+00  
 3.966667e+01 0.000000e+00 0.000000e+00  
 4.000000e+01 3.333333e-01 0.000000e+00  
 3.966667e+01 3.333333e-01 0.000000e+00  
 3.933333e+01 0.000000e+00 0.000000e+00  
 4.000000e+01 6.666667e-01 0.000000e+00  
 3.966667e+01 6.666665e-01 0.000000e+00  
 3.933333e+01 3.333333e-01 0.000000e+00  
 3.933333e+01 6.666665e-01 0.000000e+00  
 3.900000e+01 0.000000e+00 0.000000e+00  
 4.000000e+01 1.000000e+00 0.000000e+00  
 3.900000e+01 3.333333e-01 0.000000e+00  
 3.966667e+01 1.000000e+00 0.000000e+00  
 3.900000e+01 6.666665e-01 0.000000e+00  
 3.933333e+01 1.000000e+00 0.000000e+00  
 3.866667e+01 0.000000e+00 0.000000e+00  
 4.000000e+01 1.333333e+00 0.000000e+00  
 3.866667e+01 3.333333e-01 0.000000e+00  
 3.966667e+01 1.333333e+00 0.000000e+00  
 3.900000e+01 1.000000e+00 0.000000e+00  
 3.866667e+01 6.666665e-01 0.000000e+00  
 3.933333e+01 1.333333e+00 0.000000e+00  
 3.833333e+01 0.000000e+00 0.000000e+00  
 3.866667e+01 1.000000e+00 0.000000e+00  
 3.900000e+01 1.333333e+00 0.000000e+00  
 4.000000e+01 1.666667e+00 0.000000e+00  
 3.833333e+01 3.333333e-01 0.000000e+00  
 3.966667e+01 1.666667e+00 0.000000e+00  
 3.833333e+01 6.666665e-01 0.000000e+00  
 3.933333e+01 1.666667e+00 0.000000e+00  
 3.866667e+01 1.333333e+00 0.000000e+00  
 3.833333e+01 1.000000e+00 0.000000e+00  
 3.900000e+01 1.666667e+00 0.000000e+00  
 3.800000e+01 0.000000e+00 0.000000e+00  
 4.000000e+01 2.000000e+00 0.000000e+00  
 3.800000e+01 3.333333e-01 0.000000e+00  
 3.966667e+01 2.000000e+00 0.000000e+00  
 3.800000e+01 6.666665e-01 0.000000e+00  
 3.933333e+01 2.000000e+00 0.000000e+00  
 3.833333e+01 1.333333e+00 0.000000e+00  
 3.866667e+01 1.666667e+00 0.000000e+00  
 3.800000e+01 1.000000e+00 0.000000e+00  
 3.900000e+01 2.000000e+00 0.000000e+00  
 3.766667e+01 0.000000e+00 0.000000e+00  
 4.000000e+01 2.333333e+00 0.000000e+00  
 3.966667e+01 2.333333e+00 0.000000e+00  
 3.766667e+01 3.333333e-01 0.000000e+00  
 3.833333e+01 1.666667e+00 0.000000e+00  
 3.800000e+01 1.333333e+00 0.000000e+00  
 3.866667e+01 2.000000e+00 0.000000e+00  
 3.933333e+01 2.333333e+00 0.000000e+00  
 3.766667e+01 6.666665e-01 0.000000e+00  
 3.900000e+01 2.333333e+00 0.000000e+00  
 3.766667e+01 1.000000e+00 0.000000e+00  
 3.833333e+01 2.000000e+00 0.000000e+00  
 3.800000e+01 1.666667e+00 0.000000e+00  
 3.733333e+01 0.000000e+00 0.000000e+00  
 4.000000e+01 2.666667e+00 0.000000e+00  
 3.966667e+01 2.666666e+00 0.000000e+00  
 3.866667e+01 2.333333e+00 0.000000e+00  
 3.733333e+01 3.333333e-01 0.000000e+00  
 3.766667e+01 1.333333e+00 0.000000e+00  
 3.933333e+01 2.666666e+00 0.000000e+00  
 3.733333e+01 6.666665e-01 0.000000e+00  
 3.800000e+01 2.000000e+00 0.000000e+00  
 3.900000e+01 2.666666e+00 0.000000e+00  
 3.733333e+01 1.000000e+00 0.000000e+00  
 3.833333e+01 2.333333e+00 0.000000e+00  
 3.766667e+01 1.666667e+00 0.000000e+00  
 3.866667e+01 2.666666e+00 0.000000e+00  
 3.733333e+01 1.333333e+00 0.000000e+00  
 4.000000e+01 3.000000e+00 0.000000e+00  
 3.700000e+01 0.000000e+00 0.000000e+00  
 3.966667e+01 2.999999e+00 0.000000e+00  
 3.700000e+01 3.333333e-01 0.000000e+00  
 3.933333e+01 2.999999e+00 0.000000e+00  
 3.800000e+01 2.333333e+00 0.000000e+00  
 3.700000e+01 6.666665e-01 0.000000e+00  
 3.766667e+01 2.000000e+00 0.000000e+00  
 3.833333e+01 2.666666e+00 0.000000e+00  
 3.733333e+01 1.666667e+00 0.000000e+00  
 3.900000e+01 2.999999e+00 0.000000e+00  
 3.700000e+01 1.000000e+00 0.000000e+00  
 3.866667e+01 2.999999e+00 0.000000e+00  
 3.700000e+01 1.333333e+00 0.000000e+00  
 3.766667e+01 2.333333e+00 0.000000e+00  
 3.800000e+01 2.666666e+00 0.000000e+00  
 3.666667e+01 0.000000e+00 0.000000e+00  
 4.000000e+01 3.333333e+00 0.000000e+00  
 3.733333e+01 2.000000e+00 0.000000e+00  
 3.666667e+01 3.333333e-01 0.000000e+00  
 3.966667e+01 3.333333e+00 0.000000e+00  
 3.666667e+01 6.666665e-01 0.000000e+00  
 3.933333e+01 3.333333e+00 0.000000e+00  
 3.833333e+01 2.999999e+00 0.000000e+00  
 3.700000e+01 1.666667e+00 0.000000e+00  
 3.666667e+01 1.000000e+00 0.000000e+00  
 3.900000e+01 3.333333e+00 0.000000e+00  
 3.766667e+01 2.666666e+00 0.000000e+00  
 3.733333e+01 2.333333e+00 0.000000e+00  
 3.666667e+01 1.333333e+00 0.000000e+00  
 3.866667e+01 3.333333e+00 0.000000e+00  
 3.800000e+01 2.999999e+00 0.000000e+00  
 3.700000e+01 2.000000e+00 0.000000e+00  
 3.633333e+01 0.000000e+00 0.000000e+00  
 4.000000e+01 3.666667e+00 0.000000e+00  
 3.633333e+01 3.333333e-01 0.000000e+00  
 3.966667e+01 3.666667e+00 0.000000e+00  
 3.666667e+01 1.666667e+00 0.000000e+00  
 3.833333e+01 3.333333e+00 0.000000e+00  
 3.633333e+01 6.666665e-01 0.000000e+00  
 3.933333e+01 3.666667e+00 0.000000e+00  
 3.733333e+01 2.666666e+00 0.000000e+00  
 3.766667e+01 2.999999e+00 0.000000e+00  
 3.700000e+01 2.333333e+00 0.000000e+00  
 3.633333e+01 1.000000e+00 0.000000e+00  
 3.900000e+01 3.666667e+00 0.000000e+00  
 3.666667e+01 2.000000e+00 0.000000e+00  
 3.800000e+01 3.333333e+00 0.000000e+00  
 3.633333e+01 1.333333e+00 0.000000e+00  
 3.866667e+01 3.666667e+00 0.000000e+00  
 4.000000e+01 4.000000e+00 0.000000e+00  
 3.600000e+01 0.000000e+00 0.000000e+00  
 3.733333e+01 2.999999e+00 0.000000e+00  
 3.700000e+01 2.666666e+00 0.000000e+00  
 3.600000e+01 3.333333e-01 0.000000e+00  
 3.966667e+01 4.000000e+00 0.000000e+00  
 3.633333e+01 1.666667e+00 0.000000e+00  
 3.833333e+01 3.666667e+00 0.000000e+00  
 3.600000e+01 6.666665e-01 0.000000e+00  
 3.933333e+01 4.000000e+00 0.000000e+00  
 3.666667e+01 2.333333e+00 0.000000e+00  
 3.766667e+01 3.333333e+00 0.000000e+00  
 3.600000e+01 1.000000e+00 0.000000e+00  
 3.900000e+01 4.000000e+00 0.000000e+00  
 3.633333e+01 2.000000e+00 0.000000e+00  
 3.800000e+01 3.666667e+00 0.000000e+00  
 3.600000e+01 1.333333e+00 0.000000e+00  
 3.866667e+01 4.000000e+00 0.000000e+00  
 3.700000e+01 2.999999e+00 0.000000e+00  
 3.666667e+01 2.666666e+00 0.000000e+00  
 3.733333e+01 3.333333e+00 0.000000e+00  
 4.000000e+01 4.333333e+00 0.000000e+00  
 3.566667e+01 0.000000e+00 0.000000e+00  
 3.600000e+01 1.666667e+00 0.000000e+00  
 3.833333e+01 4.000000e+00 0.000000e+00  
 3.633333e+01 2.333333e+00 0.000000e+00  
 3.766667e+01 3.666667e+00 0.000000e+00  
 3.966667e+01 4.333333e+00 0.000000e+00  
 3.566667e+01 3.333333e-01 0.000000e+00  
 3.933333e+01 4.333333e+00 0.000000e+00  
 3.566667e+01 6.666665e-01 0.000000e+00  
 3.900000e+01 4.333333e+00 0.000000e+00  
 3.566667e+01 1.000000e+00 0.000000e+00  
 3.600000e+01 2.000000e+00 0.000000e+00  
 3.800000e+01 4.000000e+00 0.000000e+00  
 3.666667e+01 2.999999e+00 0.000000e+00  
 3.700000e+01 3.333333e+00 0.000000e+00  
 3.633333e+01 2.666666e+00 0.000000e+00  
 3.733333e+01 3.666667e+00 0.000000e+00  
 3.866667e+01 4.333333e+00 0.000000e+00  
 3.566667e+01 1.333333e+00 0.000000e+00  
 3.600000e+01 2.333333e+00 0.000000e+00  
 3.766667e+01 4.000000e+00 0.000000e+00  
 3.833333e+01 4.333333e+00 0.000000e+00  
 3.566667e+01 1.666667e+00 0.000000e+00  
 3.533333e+01 0.000000e+00 0.000000e+00  
 4.000000e+01 4.666667e+00 0.000000e+00  
 3.533333e+01 3.333333e-01 0.000000e+00  
 3.966667e+01 4.666667e+00 0.000000e+00  
 3.666667e+01 3.333333e+00 0.000000e+00  
 3.533333e+01 6.666665e-01 0.000000e+00  
 3.933333e+01 4.666667e+00 0.000000e+00  
 3.633333e+01 2.999999e+00 0.000000e+00  
 3.700000e+01 3.666667e+00 0.000000e+00  
 3.900000e+01 4.666667e+00 0.000000e+00  
 3.533333e+01 1.000000e+00 0.000000e+00  
 3.800000e+01 4.333333e+00 0.000000e+00  
 3.566667e+01 2.000000e+00 0.000000e+00  
 3.600000e+01 2.666666e+00 0.000000e+00  
 3.733333e+01 4.000000e+00 0.000000e+00  
 3.866667e+01 4.666667e+00 0.000000e+00  
 3.533333e+01 1.333333e+00 0.000000e+00  
 3.766667e+01 4.333333e+00 0.000000e+00  
 3.566667e+01 2.333333e+00 0.000000e+00  
 3.633333e+01 3.333333e+00 0.000000e+00  
 3.666667e+01 3.666667e+00 0.000000e+00  
 3.833333e+01 4.666667e+00 0.000000e+00  
 3.533333e+01 1.666667e+00 0.000000e+00  
 3.600000e+01 2.999999e+00 0.000000e+00  
 3.500000e+01 0.000000e+00 0.000000e+00  
 4.000000e+01 5.000000e+00 0.000000e+00  
 3.700000e+01 4.000000e+00 0.000000e+00  
 3.500000e+01 3.333333e-01 0.000000e+00  
 3.966667e+01 5.000000e+00 0.000000e+00  
 3.500000e+01 6.666665e-01 0.000000e+00  
 3.933333e+01 5.000000e+00 0.000000e+00  
 3.800000e+01 4.666667e+00 0.000000e+00  
 3.533333e+01 2.000000e+00 0.000000e+00  
 3.733333e+01 4.333333e+00 0.000000e+00  
 3.566667e+01 2.666666e+00 0.000000e+00  
 3.900000e+01 5.000000e+00 0.000000e+00  
 3.500000e+01 1.000000e+00 0.000000e+00  
 3.866667e+01 5.000000e+00 0.000000e+00  
 3.500000e+01 1.333333e+00 0.000000e+00  
 3.633333e+01 3.666667e+00 0.000000e+00  
 3.666667e+01 4.000000e+00 0.000000e+00  
 3.600000e+01 3.333333e+00 0.000000e+00  
 3.533333e+01 2.333333e+00 0.000000e+00  
 3.766667e+01 4.666667e+00 0.000000e+00  
 3.566667e+01 2.999999e+00 0.000000e+00  
 3.833333e+01 5.000000e+00 0.000000e+00  
 3.700000e+01 4.333333e+00 0.000000e+00  
 3.500000e+01 1.666667e+00 0.000000e+00  
 4.000000e+01 5.333333e+00 0.000000e+00  
 3.466667e+01 0.000000e+00 0.000000e+00  
 3.466667e+01 3.333333e-01 0.000000e+00  
 3.966667e+01 5.333333e+00 0.000000e+00  
 3.533333e+01 2.666666e+00 0.000000e+00  
 3.466667e+01 6.666665e-01 0.000000e+00  
 3.933333e+01 5.333333e+00 0.000000e+00  
 3.733333e+01 4.666667e+00 0.000000e+00  
 3.800000e+01 5.000000e+00 0.000000e+00  
 3.500000e+01 2.000000e+00 0.000000e+00  
 3.633333e+01 4.000000e+00 0.000000e+00  
 3.900000e+01 5.333333e+00 0.000000e+00  
 3.466667e+01 1.000000e+00 0.000000e+00  
 3.600000e+01 3.666667e+00 0.000000e+00  
 3.666667e+01 4.333333e+00 0.000000e+00  
 3.566667e+01 3.333333e+00 0.000000e+00  
 3.866667e+01 5.333333e+00 0.000000e+00  
 3.466667e+01 1.333333e+00 0.000000e+00  
 3.500000e+01 2.333333e+00 0.000000e+00  
 3.766667e+01 5.000000e+00 0.000000e+00  
 3.533333e+01 2.999999e+00 0.000000e+00  
 3.700000e+01 4.666667e+00 0.000000e+00  
[...]
 POINT_DATA 3751 
 VECTORS Displacement float 
 -1.149456e-02 -6.365724e-02 0.000000e+00  
 -1.148890e-02 -6.284258e-02 0.000000e+00  
 -1.069019e-02 -6.365148e-02 0.000000e+00  
 -1.068755e-02 -6.283999e-02 0.000000e+00  
 -1.147824e-02 -6.204184e-02 0.000000e+00  
 -9.900009e-03 -6.364045e-02 0.000000e+00  
 -9.897144e-03 -6.283585e-02 0.000000e+00  
 -1.068333e-02 -6.203909e-02 0.000000e+00  
 -9.894559e-03 -6.203673e-02 0.000000e+00  
 -1.146657e-02 -6.124837e-02 0.000000e+00  
 -9.118032e-03 -6.362832e-02 0.000000e+00  
 -1.067665e-02 -6.124541e-02 0.000000e+00  
 -9.115009e-03 -6.282951e-02 0.000000e+00  
 -9.890604e-03 -6.124320e-02 0.000000e+00  
 -9.112637e-03 -6.203341e-02 0.000000e+00  
 -1.145449e-02 -6.045953e-02 0.000000e+00  
 -8.342047e-03 -6.361604e-02 0.000000e+00  
 -1.066822e-02 -6.045632e-02 0.000000e+00  
 -8.338949e-03 -6.282194e-02 0.000000e+00  
 -9.109764e-03 -6.124094e-02 0.000000e+00  
 -9.884900e-03 -6.045391e-02 0.000000e+00  
 -8.336571e-03 -6.202899e-02 0.000000e+00  
 -1.144196e-02 -5.967389e-02 0.000000e+00  
 -9.105677e-03 -6.045185e-02 0.000000e+00  
 -8.334105e-03 -6.123818e-02 0.000000e+00  
 -7.570807e-03 -6.360399e-02 0.000000e+00  
 -1.065848e-02 -5.967044e-02 0.000000e+00  
 -7.567742e-03 -6.281383e-02 0.000000e+00  
 -9.877583e-03 -5.966772e-02 0.000000e+00  
 -7.565363e-03 -6.202382e-02 0.000000e+00  
 -8.330893e-03 -6.044976e-02 0.000000e+00  
 -9.100142e-03 -5.966551e-02 0.000000e+00  
 -7.563087e-03 -6.123487e-02 0.000000e+00  
 -1.142884e-02 -5.889064e-02 0.000000e+00  
 -6.803528e-03 -6.359243e-02 0.000000e+00  
 -1.064759e-02 -5.888693e-02 0.000000e+00  
 -6.800578e-03 -6.280564e-02 0.000000e+00  
 -9.868816e-03 -5.888387e-02 0.000000e+00  
 -6.798255e-03 -6.201828e-02 0.000000e+00  
 -8.326554e-03 -5.966356e-02 0.000000e+00  
 -7.560373e-03 -6.044745e-02 0.000000e+00  
 -9.093150e-03 -5.888138e-02 0.000000e+00  
 -6.796117e-03 -6.123119e-02 0.000000e+00  
 -1.141499e-02 -5.810931e-02 0.000000e+00  
 -6.039623e-03 -6.358158e-02 0.000000e+00  
 -6.036857e-03 -6.279768e-02 0.000000e+00  
 -1.063559e-02 -5.810531e-02 0.000000e+00  
 -7.556828e-03 -5.966166e-02 0.000000e+00  
 -8.320927e-03 -5.887930e-02 0.000000e+00  
 -6.793731e-03 -6.044491e-02 0.000000e+00  
 -6.034649e-03 -6.201267e-02 0.000000e+00  
 -9.858712e-03 -5.810190e-02 0.000000e+00  
 -6.032656e-03 -6.122733e-02 0.000000e+00  
 -9.084755e-03 -5.809907e-02 0.000000e+00  
 -6.790745e-03 -5.965972e-02 0.000000e+00  
 -7.552222e-03 -5.887746e-02 0.000000e+00  
 -1.140025e-02 -5.732960e-02 0.000000e+00  
 -5.278611e-03 -6.357161e-02 0.000000e+00  
 -5.276083e-03 -6.279020e-02 0.000000e+00  
 -6.030531e-03 -6.044223e-02 0.000000e+00  
 -1.062249e-02 -5.732529e-02 0.000000e+00  
 -8.313973e-03 -5.809672e-02 0.000000e+00  
 -5.274044e-03 -6.200725e-02 0.000000e+00  
 -9.847330e-03 -5.732153e-02 0.000000e+00  
 -6.786909e-03 -5.887574e-02 0.000000e+00  
 -5.272221e-03 -6.122349e-02 0.000000e+00  
 -9.075013e-03 -5.731833e-02 0.000000e+00  
 -6.027972e-03 -5.965774e-02 0.000000e+00  
 -7.546439e-03 -5.809473e-02 0.000000e+00  
 -5.270335e-03 -6.043952e-02 0.000000e+00  
 -8.305701e-03 -5.731564e-02 0.000000e+00  
 -4.520068e-03 -6.356268e-02 0.000000e+00  
 -1.138452e-02 -5.655135e-02 0.000000e+00  
 -4.517824e-03 -6.278338e-02 0.000000e+00  
 -1.060826e-02 -5.654670e-02 0.000000e+00  
 -4.515999e-03 -6.200220e-02 0.000000e+00  
 -6.024746e-03 -5.887410e-02 0.000000e+00  
 -9.834700e-03 -5.654257e-02 0.000000e+00  
 -6.782075e-03 -5.809299e-02 0.000000e+00  
 -5.268137e-03 -5.965577e-02 0.000000e+00  
 -7.539440e-03 -5.731339e-02 0.000000e+00  
 -4.514375e-03 -6.121985e-02 0.000000e+00  
 -9.063967e-03 -5.653899e-02 0.000000e+00  
 -4.512730e-03 -6.043692e-02 0.000000e+00  
 -8.296139e-03 -5.653594e-02 0.000000e+00  
 -6.020691e-03 -5.809144e-02 0.000000e+00  
 -5.265417e-03 -5.887253e-02 0.000000e+00  
 -1.136766e-02 -5.577447e-02 0.000000e+00  
 -3.763605e-03 -6.355492e-02 0.000000e+00  
 -6.776162e-03 -5.731147e-02 0.000000e+00  
 -1.059285e-02 -5.576947e-02 0.000000e+00  
 -3.761680e-03 -6.277739e-02 0.000000e+00  
 -9.820828e-03 -5.576496e-02 0.000000e+00  
 -3.760105e-03 -6.199770e-02 0.000000e+00  
 -4.510859e-03 -5.965387e-02 0.000000e+00  
 -7.531221e-03 -5.653336e-02 0.000000e+00  
 -9.051647e-03 -5.576099e-02 0.000000e+00  
 -3.758708e-03 -6.121655e-02 0.000000e+00  
 -5.262024e-03 -5.809003e-02 0.000000e+00  
 -6.015709e-03 -5.730983e-02 0.000000e+00  
 -8.285315e-03 -5.575755e-02 0.000000e+00  
 -3.757313e-03 -6.043452e-02 0.000000e+00  
 -4.508585e-03 -5.887106e-02 0.000000e+00  
 -6.769140e-03 -5.653118e-02 0.000000e+00  
 -1.134961e-02 -5.499893e-02 0.000000e+00  
 -3.008854e-03 -6.354843e-02 0.000000e+00  
 -1.057621e-02 -5.499355e-02 0.000000e+00  
 -3.007280e-03 -6.277233e-02 0.000000e+00  
 -7.521798e-03 -5.575462e-02 0.000000e+00  
 -3.755755e-03 -5.965211e-02 0.000000e+00  
 -9.805709e-03 -5.498866e-02 0.000000e+00  
 -3.005986e-03 -6.199386e-02 0.000000e+00  
 -5.257851e-03 -5.730841e-02 0.000000e+00  
 -4.505771e-03 -5.808876e-02 0.000000e+00  
 -6.009747e-03 -5.652934e-02 0.000000e+00  
 -9.038071e-03 -5.498430e-02 0.000000e+00  
 -3.004839e-03 -6.121369e-02 0.000000e+00  
 -6.761002e-03 -5.575212e-02 0.000000e+00  
 -3.753891e-03 -5.886971e-02 0.000000e+00  
 -8.273256e-03 -5.498048e-02 0.000000e+00  
 -3.003705e-03 -6.043243e-02 0.000000e+00  
 -2.255462e-03 -6.354329e-02 0.000000e+00  
 -1.133028e-02 -5.422475e-02 0.000000e+00  
 -4.502317e-03 -5.730718e-02 0.000000e+00  
 -5.252835e-03 -5.652778e-02 0.000000e+00  
 -1.055831e-02 -5.421898e-02 0.000000e+00  
 -2.254261e-03 -6.276830e-02 0.000000e+00  
 -7.511189e-03 -5.497716e-02 0.000000e+00  
 -3.002457e-03 -5.965058e-02 0.000000e+00  
 -9.789332e-03 -5.421369e-02 0.000000e+00  
 -2.253270e-03 -6.199077e-02 0.000000e+00  
 -6.002783e-03 -5.575002e-02 0.000000e+00  
 -3.751602e-03 -5.808763e-02 0.000000e+00  
 -9.023250e-03 -5.420894e-02 0.000000e+00  
 -2.252393e-03 -6.121138e-02 0.000000e+00  
 -6.751759e-03 -5.497433e-02 0.000000e+00  
 -3.000980e-03 -5.886854e-02 0.000000e+00  
 -8.259980e-03 -5.420472e-02 0.000000e+00  
 -2.251532e-03 -6.043073e-02 0.000000e+00  
 -4.498155e-03 -5.652647e-02 0.000000e+00  
 -5.246943e-03 -5.574825e-02 0.000000e+00  
 -3.748800e-03 -5.730612e-02 0.000000e+00  
 -1.503081e-03 -6.353957e-02 0.000000e+00  
 -1.130961e-02 -5.345195e-02 0.000000e+00  
 -7.499416e-03 -5.420103e-02 0.000000e+00  
 -2.250593e-03 -5.964932e-02 0.000000e+00  
 -5.994815e-03 -5.497192e-02 0.000000e+00  
 -2.999181e-03 -5.808668e-02 0.000000e+00  
 -1.502271e-03 -6.276537e-02 0.000000e+00  
 -1.053912e-02 -5.344578e-02 0.000000e+00  
 -1.501602e-03 -6.198852e-02 0.000000e+00  
 -9.771683e-03 -5.344010e-02 0.000000e+00  
 -1.501009e-03 -6.120969e-02 0.000000e+00  
 -9.007187e-03 -5.343495e-02 0.000000e+00  
 -6.741427e-03 -5.419784e-02 0.000000e+00  
 -2.249493e-03 -5.886759e-02 0.000000e+00  
 -4.493247e-03 -5.574678e-02 0.000000e+00  
 -3.745422e-03 -5.652538e-02 0.000000e+00  
 -5.240162e-03 -5.496990e-02 0.000000e+00  
 -2.996984e-03 -5.730525e-02 0.000000e+00  
 -1.500429e-03 -6.042947e-02 0.000000e+00  
 -8.245503e-03 -5.343034e-02 0.000000e+00  
 -5.985852e-03 -5.419511e-02 0.000000e+00  
 -2.248159e-03 -5.808590e-02 0.000000e+00  
 -1.499802e-03 -5.964839e-02 0.000000e+00  
 -7.486500e-03 -5.342628e-02 0.000000e+00  
 -1.128755e-02 -5.268062e-02 0.000000e+00  
 -7.513730e-04 -6.353733e-02 0.000000e+00  
 -1.051858e-02 -5.267403e-02 0.000000e+00  
 -7.509652e-04 -6.276359e-02 0.000000e+00  
 -3.741428e-03 -5.574558e-02 0.000000e+00  
 -9.752748e-03 -5.266794e-02 0.000000e+00  
 -7.506276e-04 -6.198714e-02 0.000000e+00  
 -4.487575e-03 -5.496822e-02 0.000000e+00  
 -2.994337e-03 -5.652450e-02 0.000000e+00  
 -7.503288e-04 -6.120865e-02 0.000000e+00  
 -8.989883e-03 -5.266240e-02 0.000000e+00  
 -1.499071e-03 -5.886688e-02 0.000000e+00  
 -6.730025e-03 -5.342273e-02 0.000000e+00  
 -5.232493e-03 -5.419281e-02 0.000000e+00  
 -2.246536e-03 -5.730456e-02 0.000000e+00  
 -7.500374e-04 -6.042870e-02 0.000000e+00  
 -8.229838e-03 -5.265740e-02 0.000000e+00  
 -1.498189e-03 -5.808533e-02 0.000000e+00  
 -5.975908e-03 -5.341967e-02 0.000000e+00  
 -3.736798e-03 -5.496684e-02 0.000000e+00  
 -2.991202e-03 -5.574461e-02 0.000000e+00  
 -7.497230e-04 -5.964781e-02 0.000000e+00  
 -7.472457e-03 -5.265296e-02 0.000000e+00  
 -4.481133e-03 -5.419088e-02 0.000000e+00  
 -1.126406e-02 -5.191080e-02 0.000000e+00  
 -6.003377e-14 -6.353658e-02 0.000000e+00  
 -2.244580e-03 -5.652381e-02 0.000000e+00  
 -1.049669e-02 -5.190379e-02 0.000000e+00  
 -6.158267e-14 -6.276300e-02 0.000000e+00  
 -9.732513e-03 -5.189730e-02 0.000000e+00  
 -6.251762e-14 -6.198668e-02 0.000000e+00  
 -7.493582e-04 -5.886645e-02 0.000000e+00  
 -6.717572e-03 -5.264905e-02 0.000000e+00  
 -1.497117e-03 -5.730406e-02 0.000000e+00  
 -5.223948e-03 -5.341706e-02 0.000000e+00  
 -6.400599e-14 -6.120830e-02 0.000000e+00  
 -8.971337e-03 -5.189135e-02 0.000000e+00  
 -6.489089e-14 -6.042844e-02 0.000000e+00  
 -8.212991e-03 -5.188598e-02 0.000000e+00  
 -2.987559e-03 -5.496575e-02 0.000000e+00  
 -2.242263e-03 -5.574387e-02 0.000000e+00  
 -3.731522e-03 -5.418931e-02 0.000000e+00  
 -5.965001e-03 -5.264566e-02 0.000000e+00  
 -7.489191e-04 -5.808499e-02 0.000000e+00  
 -4.473927e-03 -5.341488e-02 0.000000e+00  
 -6.518626e-14 -5.964762e-02 0.000000e+00  
 -1.495827e-03 -5.652332e-02 0.000000e+00  
 -7.457301e-03 -5.188116e-02 0.000000e+00  
 7.513730e-04 -6.353733e-02 0.000000e+00  
 -1.123910e-02 -5.114260e-02 0.000000e+00  
 -1.047342e-02 -5.113515e-02 0.000000e+00  
 7.509652e-04 -6.276359e-02 0.000000e+00  
 -5.214538e-03 -5.264275e-02 0.000000e+00  
 -9.710965e-03 -5.112825e-02 0.000000e+00  
 7.506276e-04 -6.198714e-02 0.000000e+00  
 -7.483865e-04 -5.730376e-02 0.000000e+00  
 -6.524380e-14 -5.886630e-02 0.000000e+00  
 -6.704084e-03 -5.187690e-02 0.000000e+00  
 -2.239566e-03 -5.496492e-02 0.000000e+00  
 7.503288e-04 -6.120865e-02 0.000000e+00  
 -8.951546e-03 -5.112191e-02 0.000000e+00  
 -2.983399e-03 -5.418806e-02 0.000000e+00  
 -1.494298e-03 -5.574335e-02 0.000000e+00  
 -3.725602e-03 -5.341308e-02 0.000000e+00  
 7.500374e-04 -6.042870e-02 0.000000e+00  
 -8.194970e-03 -5.111615e-02 0.000000e+00  
 -5.953147e-03 -5.187318e-02 0.000000e+00  
 -6.535610e-14 -5.808487e-02 0.000000e+00  
 -4.465966e-03 -5.264030e-02 0.000000e+00  
 -7.477455e-04 -5.652303e-02 0.000000e+00  
 7.497230e-04 -5.964781e-02 0.000000e+00  
 -7.441045e-03 -5.111097e-02 0.000000e+00  
 -2.236481e-03 -5.418710e-02 0.000000e+00  
 -5.204281e-03 -5.186997e-02 0.000000e+00  
 -6.562689e-14 -5.730365e-02 0.000000e+00  
 1.503081e-03 -6.353957e-02 0.000000e+00  
 -1.121264e-02 -5.037610e-02 0.000000e+00  
 -1.492516e-03 -5.496433e-02 0.000000e+00  
 -1.044873e-02 -5.036821e-02 0.000000e+00  
 1.502271e-03 -6.276537e-02 0.000000e+00  
 -2.978719e-03 -5.341165e-02 0.000000e+00  
 7.493582e-04 -5.886645e-02 0.000000e+00  
 -6.689576e-03 -5.110636e-02 0.000000e+00  
 -9.688093e-03 -5.036089e-02 0.000000e+00  
 1.501602e-03 -6.198852e-02 0.000000e+00  
 -7.469854e-04 -5.574304e-02 0.000000e+00  
 -3.719045e-03 -5.263828e-02 0.000000e+00  
 1.501009e-03 -6.120969e-02 0.000000e+00  
 -8.930509e-03 -5.035416e-02 0.000000e+00  
 -5.940364e-03 -5.110232e-02 0.000000e+00  
 1.500429e-03 -6.042947e-02 0.000000e+00  
 7.489191e-04 -5.808499e-02 0.000000e+00  
 -8.175777e-03 -5.034802e-02 0.000000e+00  
 -4.457265e-03 -5.186725e-02 0.000000e+00  
 -6.605551e-14 -5.652293e-02 0.000000e+00  
 -1.490476e-03 -5.418644e-02 0.000000e+00  
 -2.233004e-03 -5.341056e-02 0.000000e+00  
 1.499802e-03 -5.964839e-02 0.000000e+00  
 -7.423697e-03 -5.034248e-02 0.000000e+00  
 -7.460995e-04 -5.496399e-02 0.000000e+00  
 -2.973524e-03 -5.263666e-02 0.000000e+00  
 -5.193191e-03 -5.109881e-02 0.000000e+00  
 7.483865e-04 -5.730376e-02 0.000000e+00  
 2.255462e-03 -6.354329e-02 0.000000e+00  
 -1.118467e-02 -4.961140e-02 0.000000e+00  
 -6.704412e-14 -5.574294e-02 0.000000e+00  
 2.254261e-03 -6.276830e-02 0.000000e+00  
 -1.042263e-02 -4.960307e-02 0.000000e+00  
 1.499071e-03 -5.886688e-02 0.000000e+00  
 -6.674062e-03 -5.033753e-02 0.000000e+00  
 -3.711860e-03 -5.186500e-02 0.000000e+00  
 -9.663888e-03 -4.959533e-02 0.000000e+00  
 2.253270e-03 -6.199077e-02 0.000000e+00  
 2.252393e-03 -6.121138e-02 0.000000e+00  
 -8.908220e-03 -4.958820e-02 0.000000e+00  
 -4.447835e-03 -5.109583e-02 0.000000e+00  
 7.477455e-04 -5.652303e-02 0.000000e+00  
 -5.926664e-03 -5.033316e-02 0.000000e+00  
 1.498189e-03 -5.808533e-02 0.000000e+00  
 -1.488173e-03 -5.340980e-02 0.000000e+00  
 2.251532e-03 -6.043073e-02 0.000000e+00  
 -8.155417e-03 -4.958168e-02 0.000000e+00  
 -7.450840e-04 -5.418604e-02 0.000000e+00  
 -2.229138e-03 -5.263543e-02 0.000000e+00  
 -6.629511e-14 -5.496387e-02 0.000000e+00  
 -2.967821e-03 -5.186319e-02 0.000000e+00  
 2.250593e-03 -5.964932e-02 0.000000e+00  
 -7.405265e-03 -4.957578e-02 0.000000e+00  
 -5.181283e-03 -5.032937e-02 0.000000e+00  
 1.497117e-03 -5.730406e-02 0.000000e+00  
 -3.704059e-03 -5.109335e-02 0.000000e+00  
 7.469854e-04 -5.574304e-02 0.000000e+00  
 2.249493e-03 -5.886759e-02 0.000000e+00  
 -6.657553e-03 -4.957050e-02 0.000000e+00  
 3.008854e-03 -6.354843e-02 0.000000e+00  
 -1.115517e-02 -4.884859e-02 0.000000e+00  
 3.007280e-03 -6.277233e-02 0.000000e+00  
 -1.039510e-02 -4.883982e-02 0.000000e+00  
 3.005986e-03 -6.199386e-02 0.000000e+00  
 -1.485611e-03 -5.263456e-02 0.000000e+00  
 -7.439376e-04 -5.340934e-02 0.000000e+00  
 -9.638340e-03 -4.883166e-02 0.000000e+00  
 -6.724606e-14 -5.418591e-02 0.000000e+00  
 -2.224887e-03 -5.186181e-02 0.000000e+00  
 -4.437693e-03 -5.032613e-02 0.000000e+00  
 3.004839e-03 -6.121369e-02 0.000000e+00  
 1.495827e-03 -5.652332e-02 0.000000e+00  
 -8.884678e-03 -4.882413e-02 0.000000e+00  
 -5.912063e-03 -4.956582e-02 0.000000e+00  
 2.248159e-03 -5.808590e-02 0.000000e+00  
 7.460995e-04 -5.496399e-02 0.000000e+00  
 3.003705e-03 -6.043243e-02 0.000000e+00  
 -2.961620e-03 -5.109135e-02 0.000000e+00  
 -8.133891e-03 -4.881723e-02 0.000000e+00  
 3.002457e-03 -5.965058e-02 0.000000e+00  
 -7.385756e-03 -4.881098e-02 0.000000e+00  
 -5.168570e-03 -4.956174e-02 0.000000e+00  
 2.246536e-03 -5.730456e-02 0.000000e+00  
 -3.695655e-03 -5.032342e-02 0.000000e+00  
 1.494298e-03 -5.574335e-02 0.000000e+00  
 -7.426605e-04 -5.263404e-02 0.000000e+00  
 -1.482790e-03 -5.186083e-02 0.000000e+00  
 -6.563850e-14 -5.340919e-02 0.000000e+00  
 3.000980e-03 -5.886854e-02 0.000000e+00  
 -6.640056e-03 -4.880537e-02 0.000000e+00  
 3.763605e-03 -6.355492e-02 0.000000e+00  
 -1.112413e-02 -4.808779e-02 0.000000e+00  
 7.450840e-04 -5.418604e-02 0.000000e+00  
 -2.220260e-03 -5.108981e-02 0.000000e+00  
 3.761680e-03 -6.277739e-02 0.000000e+00  
 -1.036612e-02 -4.807857e-02 0.000000e+00  
 3.760105e-03 -6.199770e-02 0.000000e+00  
 -9.611444e-03 -4.806998e-02 0.000000e+00  
 -4.426849e-03 -4.955825e-02 0.000000e+00  
 2.244580e-03 -5.652381e-02 0.000000e+00  
 3.758708e-03 -6.121655e-02 0.000000e+00  
 -8.859881e-03 -4.806205e-02 0.000000e+00  
 1.492517e-03 -5.496433e-02 0.000000e+00  
 2.999181e-03 -5.808668e-02 0.000000e+00  
 -2.954929e-03 -5.032123e-02 0.000000e+00  
 -5.896569e-03 -4.880039e-02 0.000000e+00  
 3.757313e-03 -6.043452e-02 0.000000e+00  
 -8.111200e-03 -4.805479e-02 0.000000e+00  
 -6.809132e-14 -5.263387e-02 0.000000e+00  
 -7.412542e-04 -5.186025e-02 0.000000e+00  
 -3.686659e-03 -4.955532e-02 0.000000e+00  
 2.242263e-03 -5.574387e-02 0.000000e+00  
 2.996984e-03 -5.730525e-02 0.000000e+00  
 3.755755e-03 -5.965211e-02 0.000000e+00  
 -1.479717e-03 -5.108872e-02 0.000000e+00  
 7.439376e-04 -5.340934e-02 0.000000e+00  
 -5.155065e-03 -4.879603e-02 0.000000e+00  
 -7.365175e-03 -4.804819e-02 0.000000e+00  
 1.490476e-03 -5.418644e-02 0.000000e+00  
 -2.215262e-03 -5.031955e-02 0.000000e+00  
 3.753891e-03 -5.886971e-02 0.000000e+00  
 -6.621581e-03 -4.804225e-02 0.000000e+00  
 4.520068e-03 -6.356268e-02 0.000000e+00  
 -1.109153e-02 -4.732910e-02 0.000000e+00  
 2.994337e-03 -5.652450e-02 0.000000e+00  
 4.517822e-03 -6.278338e-02 0.000000e+00  
 -4.415315e-03 -4.879229e-02 0.000000e+00  
 -1.033568e-02 -4.731942e-02 0.000000e+00  
 2.239566e-03 -5.496492e-02 0.000000e+00  
 -2.947760e-03 -4.955295e-02 0.000000e+00  
 4.515997e-03 -6.200220e-02 0.000000e+00  
 -9.583193e-03 -4.731041e-02 0.000000e+00  
 3.751602e-03 -5.808763e-02 0.000000e+00  
 -5.880192e-03 -4.803697e-02 0.000000e+00  
 4.514373e-03 -6.121985e-02 0.000000e+00  
 -6.938656e-14 -5.186005e-02 0.000000e+00  
 -8.833824e-03 -4.730209e-02 0.000000e+00  
 -7.397209e-04 -5.108808e-02 0.000000e+00  
 7.426605e-04 -5.263404e-02 0.000000e+00  
 4.512728e-03 -6.043692e-02 0.000000e+00  
 -8.087345e-03 -4.729445e-02 0.000000e+00  
 -1.476395e-03 -5.031835e-02 0.000000e+00  
 1.488174e-03 -5.340980e-02 0.000000e+00  
 2.991202e-03 -5.574461e-02 0.000000e+00  
 -3.677080e-03 -4.878915e-02 0.000000e+00  
 3.748800e-03 -5.730612e-02 0.000000e+00  
 -5.140777e-03 -4.803234e-02 0.000000e+00  
 4.510857e-03 -5.965387e-02 0.000000e+00  
 -7.343524e-03 -4.728750e-02 0.000000e+00  
 2.236481e-03 -5.418710e-02 0.000000e+00  
 -2.209902e-03 -4.955112e-02 0.000000e+00  
 4.508584e-03 -5.887106e-02 0.000000e+00  
 -6.602132e-03 -4.728124e-02 0.000000e+00  
 -4.403103e-03 -4.802836e-02 0.000000e+00  
 -6.887322e-14 -5.108786e-02 0.000000e+00  
 3.745422e-03 -5.652538e-02 0.000000e+00  
 7.412542e-04 -5.186025e-02 0.000000e+00  
 2.987559e-03 -5.496575e-02 0.000000e+00  
 -2.940120e-03 -4.878660e-02 0.000000e+00  
 5.278611e-03 -6.357161e-02 0.000000e+00  
 -1.105736e-02 -4.657261e-02 0.000000e+00  
 -7.380629e-04 -5.031764e-02 0.000000e+00  
 1.485611e-03 -5.263456e-02 0.000000e+00  
 -1.030379e-02 -4.656248e-02 0.000000e+00  
 5.276083e-03 -6.279020e-02 0.000000e+00  
 -9.553584e-03 -4.655305e-02 0.000000e+00  
 5.274044e-03 -6.200725e-02 0.000000e+00  
 4.505770e-03 -5.808876e-02 0.000000e+00  
 -5.862941e-03 -4.727567e-02 0.000000e+00  
 -1.472829e-03 -4.954982e-02 0.000000e+00  
 2.233004e-03 -5.341057e-02 0.000000e+00  
 -8.806508e-03 -4.654432e-02 0.000000e+00  
 5.272221e-03 -6.122349e-02 0.000000e+00  
 3.741428e-03 -5.574558e-02 0.000000e+00  
 -8.062326e-03 -4.653632e-02 0.000000e+00  
 -3.666930e-03 -4.802501e-02 0.000000e+00  
 5.270336e-03 -6.043952e-02 0.000000e+00  
 2.983399e-03 -5.418806e-02 0.000000e+00  
 -5.125714e-03 -4.727077e-02 0.000000e+00  
 4.502315e-03 -5.730718e-02 0.000000e+00  
 -2.204186e-03 -4.878463e-02 0.000000e+00  
 -7.320806e-03 -4.652902e-02 0.000000e+00  
 5.268137e-03 -5.965577e-02 0.000000e+00  
 7.397209e-04 -5.108808e-02 0.000000e+00  
 -6.903539e-14 -5.031740e-02 0.000000e+00  
 1.482790e-03 -5.186083e-02 0.000000e+00  
 -7.362828e-04 -4.954905e-02 0.000000e+00  
 2.229138e-03 -5.263543e-02 0.000000e+00  
 -6.581715e-03 -4.652245e-02 0.000000e+00  
 5.265418e-03 -5.887253e-02 0.000000e+00  
 3.736798e-03 -5.496684e-02 0.000000e+00  
 -2.932018e-03 -4.802229e-02 0.000000e+00  
 -4.390219e-03 -4.726656e-02 0.000000e+00  
 4.498153e-03 -5.652647e-02 0.000000e+00  
 6.039623e-03 -6.358158e-02 0.000000e+00  
 -1.102163e-02 -4.581844e-02 0.000000e+00  
 -1.027043e-02 -4.580785e-02 0.000000e+00  
 2.978719e-03 -5.341165e-02 0.000000e+00  
 -1.469026e-03 -4.878323e-02 0.000000e+00  
 6.036857e-03 -6.279768e-02 0.000000e+00  
 -5.844820e-03 -4.651658e-02 0.000000e+00  
 -9.522613e-03 -4.579800e-02 0.000000e+00  
 5.262024e-03 -5.809003e-02 0.000000e+00  
 6.034650e-03 -6.201267e-02 0.000000e+00  
 -8.777929e-03 -4.578888e-02 0.000000e+00  
 6.032657e-03 -6.122733e-02 0.000000e+00  
 4.493246e-03 -5.574678e-02 0.000000e+00  
 -3.656215e-03 -4.726301e-02 0.000000e+00  
 3.731522e-03 -5.418931e-02 0.000000e+00  
 -2.198121e-03 -4.802018e-02 0.000000e+00  
 1.479717e-03 -5.108872e-02 0.000000e+00  
 7.380629e-04 -5.031764e-02 0.000000e+00  
 -8.036145e-03 -4.578050e-02 0.000000e+00  
 6.030531e-03 -6.044223e-02 0.000000e+00  