# vtk DataFile Version 1.0 
PolyMesh 
ASCII 
 
DATASET POLYDATA 
 
POINTS 462 float 
4.000000e+01 1.000000e+01 0.000000e+00  
 4.000000e+01 9.500000e+00 0.000000e+00  
 4.000000e+01 9.000000e+00 0.000000e+00  
 4.000000e+01 8.500000e+00 0.000000e+00  
 4.000000e+01 8.000000e+00 0.000000e+00  
 4.000000e+01 7.500000e+00 0.000000e+00  
 4.000000e+01 7.000000e+00 0.000000e+00  
 3.680969e+01 1.000000e+01 0.000000e+00  
 3.680969e+01 9.500000e+00 0.000000e+00  
 3.680969e+01 9.000000e+00 0.000000e+00  
 4.000000e+01 6.500000e+00 0.000000e+00  
 3.680969e+01 8.500000e+00 0.000000e+00  
 3.680969e+01 8.000000e+00 0.000000e+00  
 4.000000e+01 6.000000e+00 0.000000e+00  
 3.680969e+01 7.500000e+00 0.000000e+00  
 3.680969e+01 7.000000e+00 0.000000e+00  
 4.000000e+01 5.500000e+00 0.000000e+00  
 3.680969e+01 6.500000e+00 0.000000e+00  
 4.000000e+01 5.000000e+00 0.000000e+00  
 3.680969e+01 6.000000e+00 0.000000e+00  
 4.000000e+01 4.500000e+00 0.000000e+00  
 3.680969e+01 5.500000e+00 0.000000e+00  
 3.680969e+01 5.000000e+00 0.000000e+00  
 4.000000e+01 4.000000e+00 0.000000e+00  
 3.364947e+01 1.000000e+01 0.000000e+00  
 3.680969e+01 4.500000e+00 0.000000e+00  
 3.364947e+01 9.500000e+00 0.000000e+00  
 3.364947e+01 9.000000e+00 0.000000e+00  
 4.000000e+01 3.500000e+00 0.000000e+00  
 3.364947e+01 8.500000e+00 0.000000e+00  
 3.364947e+01 8.000000e+00 0.000000e+00  
 3.680969e+01 4.000000e+00 0.000000e+00  
 3.364947e+01 7.500000e+00 0.000000e+00  
 4.000000e+01 3.000000e+00 0.000000e+00  
 3.364947e+01 7.000000e+00 0.000000e+00  
 3.680969e+01 3.500000e+00 0.000000e+00  
 3.364947e+01 6.500000e+00 0.000000e+00  
 4.000000e+01 2.500000e+00 0.000000e+00  
 3.364947e+01 6.000000e+00 0.000000e+00  
 3.680969e+01 3.000000e+00 0.000000e+00  
 3.364947e+01 5.500000e+00 0.000000e+00  
 4.000000e+01 2.000000e+00 0.000000e+00  
 3.364947e+01 5.000000e+00 0.000000e+00  
 3.680969e+01 2.500000e+00 0.000000e+00  
 3.364947e+01 4.500000e+00 0.000000e+00  
 4.000000e+01 1.500000e+00 0.000000e+00  
 3.680969e+01 2.000000e+00 0.000000e+00  
 3.364947e+01 4.000000e+00 0.000000e+00  
 4.000000e+01 1.000000e+00 0.000000e+00  
 3.680969e+01 1.500000e+00 0.000000e+00  
 3.364947e+01 3.500000e+00 0.000000e+00  
 3.364947e+01 3.000000e+00 0.000000e+00  
 3.054832e+01 1.000000e+01 0.000000e+00  
 3.054832e+01 9.500000e+00 0.000000e+00  
 4.000000e+01 5.000000e-01 0.000000e+00  
 3.054832e+01 9.000000e+00 0.000000e+00  
 3.680969e+01 1.000000e+00 0.000000e+00  
 3.054832e+01 8.500000e+00 0.000000e+00  
 3.054832e+01 8.000000e+00 0.000000e+00  
 3.054832e+01 7.500000e+00 0.000000e+00  
 3.364947e+01 2.500000e+00 0.000000e+00  
 3.054832e+01 7.000000e+00 0.000000e+00  
 4.000000e+01 0.000000e+00 0.000000e+00  
 3.680969e+01 4.999999e-01 0.000000e+00  
 3.054832e+01 6.500000e+00 0.000000e+00  
 3.364947e+01 2.000000e+00 0.000000e+00  
 3.054832e+01 6.000000e+00 0.000000e+00  
 3.054832e+01 5.500000e+00 0.000000e+00  
 3.680969e+01 0.000000e+00 0.000000e+00  
 3.364947e+01 1.500000e+00 0.000000e+00  
 3.054832e+01 5.000000e+00 0.000000e+00  
 3.054832e+01 4.500000e+00 0.000000e+00  
 3.364947e+01 1.000000e+00 0.000000e+00  
 3.054832e+01 4.000000e+00 0.000000e+00  
 3.364947e+01 4.999999e-01 0.000000e+00  
 3.054832e+01 3.500000e+00 0.000000e+00  
 3.054832e+01 3.000000e+00 0.000000e+00  
 3.364947e+01 0.000000e+00 0.000000e+00  
 3.054832e+01 2.500000e+00 0.000000e+00  
 3.054832e+01 2.000000e+00 0.000000e+00  
 2.753332e+01 1.000000e+01 0.000000e+00  
 2.753332e+01 9.500000e+00 0.000000e+00  
 2.753332e+01 9.000000e+00 0.000000e+00  
 2.753332e+01 8.500000e+00 0.000000e+00  
 2.753332e+01 8.000000e+00 0.000000e+00  
 3.054832e+01 1.500000e+00 0.000000e+00  
 2.753332e+01 7.500000e+00 0.000000e+00  
 2.753332e+01 7.000000e+00 0.000000e+00  
 2.753332e+01 6.500000e+00 0.000000e+00  
 3.054832e+01 1.000000e+00 0.000000e+00  
 2.753332e+01 6.000000e+00 0.000000e+00  
 2.753332e+01 5.500000e+00 0.000000e+00  
 3.054832e+01 4.999999e-01 0.000000e+00  
 2.753332e+01 5.000000e+00 0.000000e+00  
 2.753332e+01 4.500000e+00 0.000000e+00  
 3.054832e+01 0.000000e+00 0.000000e+00  
 2.753332e+01 4.000000e+00 0.000000e+00  
 2.753332e+01 3.500000e+00 0.000000e+00  
 2.753332e+01 3.000000e+00 0.000000e+00  
 2.753332e+01 2.500000e+00 0.000000e+00  
 2.753332e+01 2.000000e+00 0.000000e+00  
 2.753332e+01 1.500000e+00 0.000000e+00  
 2.462896e+01 1.000000e+01 0.000000e+00  
 2.753332e+01 1.000000e+00 0.000000e+00  
 2.462896e+01 9.500000e+00 0.000000e+00  
 2.462896e+01 9.000000e+00 0.000000e+00  
 2.462896e+01 8.500000e+00 0.000000e+00  
 2.462896e+01 8.000000e+00 0.000000e+00  
 2.462896e+01 7.500000e+00 0.000000e+00  
 2.462896e+01 7.000000e+00 0.000000e+00  
 2.753332e+01 4.999999e-01 0.000000e+00  
 2.462896e+01 6.500000e+00 0.000000e+00  
 2.462896e+01 6.000000e+00 0.000000e+00  
 2.753332e+01 0.000000e+00 0.000000e+00  
 2.462896e+01 5.500000e+00 0.000000e+00  
 2.462896e+01 5.000000e+00 0.000000e+00  
 2.462896e+01 4.500000e+00 0.000000e+00  
 2.462896e+01 4.000000e+00 0.000000e+00  
 2.462896e+01 3.500000e+00 0.000000e+00  
 2.462896e+01 3.000000e+00 0.000000e+00  
 2.462896e+01 2.500000e+00 0.000000e+00  
 2.462896e+01 2.000000e+00 0.000000e+00  
 2.462896e+01 1.500000e+00 0.000000e+00  
 2.462896e+01 1.000000e+00 0.000000e+00  
 2.462896e+01 4.999999e-01 0.000000e+00  
 2.185661e+01 1.000000e+01 0.000000e+00  
 2.185661e+01 9.500000e+00 0.000000e+00  
 2.185661e+01 9.000000e+00 0.000000e+00  
 2.185661e+01 8.500000e+00 0.000000e+00  
 2.185661e+01 8.000000e+00 0.000000e+00  
 2.185661e+01 7.500000e+00 0.000000e+00  
 2.462896e+01 0.000000e+00 0.000000e+00  
 2.185661e+01 7.000000e+00 0.000000e+00  
 2.185661e+01 6.500000e+00 0.000000e+00  
 2.185661e+01 6.000000e+00 0.000000e+00  
 2.185661e+01 5.500000e+00 0.000000e+00  
 2.185661e+01 5.000000e+00 0.000000e+00  
 2.185661e+01 4.500000e+00 0.000000e+00  
 2.185661e+01 4.000000e+00 0.000000e+00  
 2.185661e+01 3.500000e+00 0.000000e+00  
 2.185661e+01 3.000000e+00 0.000000e+00  
 2.185661e+01 2.500000e+00 0.000000e+00  
 2.185661e+01 2.000000e+00 0.000000e+00  
 2.185661e+01 1.500000e+00 0.000000e+00  
 2.185661e+01 1.000000e+00 0.000000e+00  
 2.185661e+01 5.000000e-01 0.000000e+00  
 2.185661e+01 0.000000e+00 0.000000e+00  
 1.923412e+01 1.000000e+01 0.000000e+00  
 1.923412e+01 9.500000e+00 0.000000e+00  
 1.923412e+01 9.000000e+00 0.000000e+00  
 1.923412e+01 8.500000e+00 0.000000e+00  
 1.923412e+01 8.000000e+00 0.000000e+00  
 1.923412e+01 7.500000e+00 0.000000e+00  
 1.923412e+01 7.000000e+00 0.000000e+00  
 1.923412e+01 6.500000e+00 0.000000e+00  
 1.923412e+01 6.000000e+00 0.000000e+00  
 1.923412e+01 5.500000e+00 0.000000e+00  
 1.923412e+01 5.000000e+00 0.000000e+00  
 1.923412e+01 4.500000e+00 0.000000e+00  
 1.923412e+01 4.000000e+00 0.000000e+00  
 1.923412e+01 3.500000e+00 0.000000e+00  
 1.923412e+01 3.000000e+00 0.000000e+00  
 1.923412e+01 2.500000e+00 0.000000e+00  
 1.923412e+01 2.000000e+00 0.000000e+00  
 1.923412e+01 1.500000e+00 0.000000e+00  
 1.923412e+01 1.000000e+00 0.000000e+00  
 1.923412e+01 5.000000e-01 0.000000e+00  
 1.923412e+01 0.000000e+00 0.000000e+00  
 1.677554e+01 1.000000e+01 0.000000e+00  
 1.677554e+01 9.500000e+00 0.000000e+00  
 1.677554e+01 9.000000e+00 0.000000e+00  
 1.677554e+01 8.500000e+00 0.000000e+00  
 1.677554e+01 8.000000e+00 0.000000e+00  
 1.677554e+01 7.500000e+00 0.000000e+00  
 1.677554e+01 7.000000e+00 0.000000e+00  
 1.677554e+01 6.500000e+00 0.000000e+00  
 1.677554e+01 6.000000e+00 0.000000e+00  
 1.677554e+01 5.500000e+00 0.000000e+00  
 1.677554e+01 5.000000e+00 0.000000e+00  
 1.677554e+01 4.500000e+00 0.000000e+00  
 1.677554e+01 4.000000e+00 0.000000e+00  
 1.677554e+01 3.500000e+00 0.000000e+00  
 1.677554e+01 3.000000e+00 0.000000e+00  
 1.677554e+01 2.500000e+00 0.000000e+00  
 1.677554e+01 2.000000e+00 0.000000e+00  
 1.677554e+01 1.500000e+00 0.000000e+00  
 1.677554e+01 1.000000e+00 0.000000e+00  
 1.677554e+01 5.000000e-01 0.000000e+00  
 1.677554e+01 0.000000e+00 0.000000e+00  
 1.449101e+01 1.000000e+01 0.000000e+00  
 1.449101e+01 9.500000e+00 0.000000e+00  
 1.449101e+01 9.000000e+00 0.000000e+00  
 1.449101e+01 8.500000e+00 0.000000e+00  
 1.449101e+01 8.000000e+00 0.000000e+00  
 1.449101e+01 7.500000e+00 0.000000e+00  
 1.449101e+01 7.000000e+00 0.000000e+00  
 1.449101e+01 6.500000e+00 0.000000e+00  
 1.449101e+01 6.000000e+00 0.000000e+00  
 1.449101e+01 5.500000e+00 0.000000e+00  
 1.449101e+01 5.000000e+00 0.000000e+00  
 1.449101e+01 4.500000e+00 0.000000e+00  
 1.449101e+01 4.000000e+00 0.000000e+00  
 1.449101e+01 3.500000e+00 0.000000e+00  
 1.449101e+01 3.000000e+00 0.000000e+00  
 1.449101e+01 2.500000e+00 0.000000e+00  
 1.449101e+01 2.000000e+00 0.000000e+00  
 1.449101e+01 1.500000e+00 0.000000e+00  
 1.449101e+01 1.000000e+00 0.000000e+00  
 1.449101e+01 5.000000e-01 0.000000e+00  
 1.449101e+01 0.000000e+00 0.000000e+00  
 1.238685e+01 1.000000e+01 0.000000e+00  
 1.238685e+01 9.500000e+00 0.000000e+00  
 1.238685e+01 9.000000e+00 0.000000e+00  
 1.238685e+01 8.500000e+00 0.000000e+00  
 1.238685e+01 8.000000e+00 0.000000e+00  
 1.238685e+01 7.500000e+00 0.000000e+00  
 1.238685e+01 7.000000e+00 0.000000e+00  
 1.238685e+01 6.500000e+00 0.000000e+00  
 1.238685e+01 6.000000e+00 0.000000e+00  
 1.238685e+01 5.500000e+00 0.000000e+00  
 1.238685e+01 5.000000e+00 0.000000e+00  
 1.238685e+01 4.500000e+00 0.000000e+00  
 1.238685e+01 4.000000e+00 0.000000e+00  
 1.238685e+01 3.500000e+00 0.000000e+00  
 1.238685e+01 3.000000e+00 0.000000e+00  
 1.238685e+01 2.500000e+00 0.000000e+00  
 1.238685e+01 2.000000e+00 0.000000e+00  
 1.238685e+01 1.500000e+00 0.000000e+00  
 1.238685e+01 1.000000e+00 0.000000e+00  
 1.238685e+01 5.000000e-01 0.000000e+00  
 1.238685e+01 0.000000e+00 0.000000e+00  
 1.046565e+01 1.000000e+01 0.000000e+00  
 1.046565e+01 9.500000e+00 0.000000e+00  
 1.046565e+01 9.000000e+00 0.000000e+00  
 1.046565e+01 8.500000e+00 0.000000e+00  
 1.046565e+01 8.000000e+00 0.000000e+00  
[...]
 POINT_DATA 462 
 VECTORS Displacement float 
 1.024956e-02 -5.721472e-02 0.000000e+00  
 9.196563e-03 -5.720949e-02 0.000000e+00  
 8.153116e-03 -5.720181e-02 0.000000e+00  
 7.117564e-03 -5.719274e-02 0.000000e+00  
 6.088677e-03 -5.718318e-02 0.000000e+00  
 5.065405e-03 -5.717390e-02 0.000000e+00  
 4.046775e-03 -5.716551e-02 0.000000e+00  
 1.016911e-02 -5.048894e-02 0.000000e+00  
 9.127372e-03 -5.048109e-02 0.000000e+00  
 8.092633e-03 -5.047483e-02 0.000000e+00  
 3.031847e-03 -5.715849e-02 0.000000e+00  
 7.064755e-03 -5.046975e-02 0.000000e+00  
 6.043197e-03 -5.046559e-02 0.000000e+00  
 2.019691e-03 -5.715323e-02 0.000000e+00  
 5.027222e-03 -5.046220e-02 0.000000e+00  
 4.015989e-03 -5.045949e-02 0.000000e+00  
 1.009384e-03 -5.714997e-02 0.000000e+00  
 3.008596e-03 -5.045741e-02 0.000000e+00  
 1.783446e-13 -5.714887e-02 0.000000e+00  
 2.004107e-03 -5.045594e-02 0.000000e+00  
 -1.009384e-03 -5.714997e-02 0.000000e+00  
 1.001566e-03 -5.045506e-02 0.000000e+00  
 -3.309804e-13 -5.045476e-02 0.000000e+00  
 -2.019691e-03 -5.715323e-02 0.000000e+00  
 9.972452e-03 -4.396073e-02 0.000000e+00  
 -1.001565e-03 -5.045506e-02 0.000000e+00  
 8.954251e-03 -4.394425e-02 0.000000e+00  
 7.942289e-03 -4.392962e-02 0.000000e+00  
 -3.031847e-03 -5.715849e-02 0.000000e+00  
 6.936046e-03 -4.391690e-02 0.000000e+00  
 5.934988e-03 -4.390607e-02 0.000000e+00  
 -2.004107e-03 -5.045594e-02 0.000000e+00  
 4.938518e-03 -4.389706e-02 0.000000e+00  
 -4.046775e-03 -5.716551e-02 0.000000e+00  
 3.945969e-03 -4.388981e-02 0.000000e+00  
 -3.008596e-03 -5.045741e-02 0.000000e+00  
 2.956622e-03 -4.388424e-02 0.000000e+00  
 -5.065405e-03 -5.717390e-02 0.000000e+00  
 1.969712e-03 -4.388030e-02 0.000000e+00  
 -4.015989e-03 -5.045949e-02 0.000000e+00  
 9.844435e-04 -4.387796e-02 0.000000e+00  
 -6.088677e-03 -5.718318e-02 0.000000e+00  
 -2.333493e-13 -4.387718e-02 0.000000e+00  
 -5.027222e-03 -5.046220e-02 0.000000e+00  
 -9.844434e-04 -4.387796e-02 0.000000e+00  
 -7.117564e-03 -5.719274e-02 0.000000e+00  
 -6.043197e-03 -5.046559e-02 0.000000e+00  
 -1.969712e-03 -4.388030e-02 0.000000e+00  
 -8.153116e-03 -5.720181e-02 0.000000e+00  
 -7.064755e-03 -5.046975e-02 0.000000e+00  
 -2.956622e-03 -4.388424e-02 0.000000e+00  
 -3.945969e-03 -4.388981e-02 0.000000e+00  
 9.665415e-03 -3.770721e-02 0.000000e+00  
 8.676898e-03 -3.768314e-02 0.000000e+00  
 -9.196563e-03 -5.720949e-02 0.000000e+00  
 7.695475e-03 -3.766152e-02 0.000000e+00  
 -8.092633e-03 -5.047483e-02 0.000000e+00  
 6.720233e-03 -3.764238e-02 0.000000e+00  
 5.750336e-03 -3.762577e-02 0.000000e+00  
 4.784994e-03 -3.761171e-02 0.000000e+00  
 -4.938518e-03 -4.389706e-02 0.000000e+00  
 3.823441e-03 -3.760021e-02 0.000000e+00  
 -1.024956e-02 -5.721472e-02 0.000000e+00  
 -9.127372e-03 -5.048109e-02 0.000000e+00  
 2.864920e-03 -3.759128e-02 0.000000e+00  
 -5.934988e-03 -4.390607e-02 0.000000e+00  
 1.908679e-03 -3.758490e-02 0.000000e+00  
 9.539586e-04 -3.758107e-02 0.000000e+00  
 -1.016911e-02 -5.048894e-02 0.000000e+00  
 -6.936046e-03 -4.391690e-02 0.000000e+00  
 6.241219e-13 -3.757980e-02 0.000000e+00  
 -9.539585e-04 -3.758107e-02 0.000000e+00  
 -7.942289e-03 -4.392962e-02 0.000000e+00  
 -1.908679e-03 -3.758490e-02 0.000000e+00  
 -8.954251e-03 -4.394425e-02 0.000000e+00  
 -2.864920e-03 -3.759128e-02 0.000000e+00  
 -3.823441e-03 -3.760021e-02 0.000000e+00  
 -9.972452e-03 -4.396073e-02 0.000000e+00  
 -4.784994e-03 -3.761171e-02 0.000000e+00  
 -5.750336e-03 -3.762577e-02 0.000000e+00  
 9.249833e-03 -3.184482e-02 0.000000e+00  
 8.302847e-03 -3.181288e-02 0.000000e+00  
 7.362779e-03 -3.178431e-02 0.000000e+00  
 6.428901e-03 -3.175909e-02 0.000000e+00  
 5.500447e-03 -3.173721e-02 0.000000e+00  
 -6.720233e-03 -3.764238e-02 0.000000e+00  
 4.576636e-03 -3.171868e-02 0.000000e+00  
 3.656688e-03 -3.170351e-02 0.000000e+00  
 2.739823e-03 -3.169170e-02 0.000000e+00  
 -7.695475e-03 -3.766152e-02 0.000000e+00  
 1.825268e-03 -3.168326e-02 0.000000e+00  
 9.122496e-04 -3.167820e-02 0.000000e+00  
 -8.676898e-03 -3.768314e-02 0.000000e+00  
 1.571960e-13 -3.167651e-02 0.000000e+00  
 -9.122496e-04 -3.167820e-02 0.000000e+00  
 -9.665415e-03 -3.770721e-02 0.000000e+00  
 -1.825268e-03 -3.168326e-02 0.000000e+00  
 -2.739823e-03 -3.169170e-02 0.000000e+00  
 -3.656688e-03 -3.170351e-02 0.000000e+00  
 -4.576636e-03 -3.171868e-02 0.000000e+00  
 -5.500447e-03 -3.173721e-02 0.000000e+00  
 -6.428901e-03 -3.175909e-02 0.000000e+00  
 8.740093e-03 -2.646646e-02 0.000000e+00  
 -7.362779e-03 -3.178431e-02 0.000000e+00  
 7.843908e-03 -2.642701e-02 0.000000e+00  
 6.954731e-03 -2.639168e-02 0.000000e+00  
 6.071773e-03 -2.636050e-02 0.000000e+00  
 5.194258e-03 -2.633346e-02 0.000000e+00  
 4.321412e-03 -2.631057e-02 0.000000e+00  
 3.452457e-03 -2.629185e-02 0.000000e+00  
 -8.302847e-03 -3.181288e-02 0.000000e+00  
 2.586618e-03 -2.627727e-02 0.000000e+00  
 1.723114e-03 -2.626686e-02 0.000000e+00  
 -9.249833e-03 -3.184482e-02 0.000000e+00  
 8.611676e-04 -2.626062e-02 0.000000e+00  
 3.881875e-13 -2.625854e-02 0.000000e+00  
 -8.611676e-04 -2.626062e-02 0.000000e+00  
 -1.723114e-03 -2.626686e-02 0.000000e+00  
 -2.586618e-03 -2.627727e-02 0.000000e+00  
 -3.452457e-03 -2.629185e-02 0.000000e+00  
 -4.321412e-03 -2.631057e-02 0.000000e+00  
 -5.194258e-03 -2.633346e-02 0.000000e+00  
 -6.071773e-03 -2.636050e-02 0.000000e+00  
 -6.954731e-03 -2.639168e-02 0.000000e+00  
 -7.843908e-03 -2.642701e-02 0.000000e+00  
 8.152766e-03 -2.163693e-02 0.000000e+00  
 7.315155e-03 -2.159022e-02 0.000000e+00  
 6.484593e-03 -2.154842e-02 0.000000e+00  
 5.660303e-03 -2.151151e-02 0.000000e+00  
 4.841499e-03 -2.147951e-02 0.000000e+00  
 4.027397e-03 -2.145243e-02 0.000000e+00  
 -8.740093e-03 -2.646646e-02 0.000000e+00  
 3.217214e-03 -2.143026e-02 0.000000e+00  
 2.410166e-03 -2.141302e-02 0.000000e+00  
 1.605471e-03 -2.140070e-02 0.000000e+00  
 8.023432e-04 -2.139331e-02 0.000000e+00  
 4.084807e-13 -2.139085e-02 0.000000e+00  
 -8.023432e-04 -2.139331e-02 0.000000e+00  
 -1.605471e-03 -2.140070e-02 0.000000e+00  
 -2.410166e-03 -2.141302e-02 0.000000e+00  
 -3.217214e-03 -2.143026e-02 0.000000e+00  
 -4.027397e-03 -2.145243e-02 0.000000e+00  
 -4.841499e-03 -2.147951e-02 0.000000e+00  
 -5.660303e-03 -2.151151e-02 0.000000e+00  
 -6.484593e-03 -2.154842e-02 0.000000e+00  
 -7.315155e-03 -2.159022e-02 0.000000e+00  
 -8.152766e-03 -2.163693e-02 0.000000e+00  
 7.505950e-03 -1.739228e-02 0.000000e+00  
 6.732852e-03 -1.733867e-02 0.000000e+00  
 5.966860e-03 -1.729068e-02 0.000000e+00  
 5.207184e-03 -1.724832e-02 0.000000e+00  
 4.453035e-03 -1.721160e-02 0.000000e+00  
 3.703624e-03 -1.718051e-02 0.000000e+00  
 2.958161e-03 -1.715507e-02 0.000000e+00  
 2.215857e-03 -1.713528e-02 0.000000e+00  
 1.475922e-03 -1.712114e-02 0.000000e+00  
 7.375662e-04 -1.711266e-02 0.000000e+00  
 -2.410410e-12 -1.710983e-02 0.000000e+00  
 -7.375662e-04 -1.711266e-02 0.000000e+00  
 -1.475922e-03 -1.712115e-02 0.000000e+00  
 -2.215857e-03 -1.713528e-02 0.000000e+00  
 -2.958162e-03 -1.715507e-02 0.000000e+00  
 -3.703624e-03 -1.718051e-02 0.000000e+00  
 -4.453035e-03 -1.721160e-02 0.000000e+00  
 -5.207184e-03 -1.724832e-02 0.000000e+00  
 -5.966860e-03 -1.729069e-02 0.000000e+00  
 -6.732852e-03 -1.733867e-02 0.000000e+00  
 -7.505950e-03 -1.739228e-02 0.000000e+00  
 6.818383e-03 -1.374117e-02 0.000000e+00  
 6.113879e-03 -1.368103e-02 0.000000e+00  
 5.416533e-03 -1.362721e-02 0.000000e+00  
 4.725550e-03 -1.357969e-02 0.000000e+00  
 4.040133e-03 -1.353850e-02 0.000000e+00  
 3.359488e-03 -1.350364e-02 0.000000e+00  
 2.682819e-03 -1.347511e-02 0.000000e+00  
 2.009331e-03 -1.345292e-02 0.000000e+00  
 1.338229e-03 -1.343706e-02 0.000000e+00  
 6.687169e-04 -1.342755e-02 0.000000e+00  
 3.538222e-13 -1.342437e-02 0.000000e+00  
 -6.687169e-04 -1.342755e-02 0.000000e+00  
 -1.338229e-03 -1.343706e-02 0.000000e+00  
 -2.009331e-03 -1.345292e-02 0.000000e+00  
 -2.682819e-03 -1.347511e-02 0.000000e+00  
 -3.359488e-03 -1.350364e-02 0.000000e+00  
 -4.040133e-03 -1.353850e-02 0.000000e+00  
 -4.725550e-03 -1.357969e-02 0.000000e+00  
 -5.416533e-03 -1.362721e-02 0.000000e+00  
 -6.113879e-03 -1.368103e-02 0.000000e+00  
 -6.818383e-03 -1.374117e-02 0.000000e+00  
 6.108555e-03 -1.066792e-02 0.000000e+00  
 5.474885e-03 -1.060168e-02 0.000000e+00  
 4.848422e-03 -1.054239e-02 0.000000e+00  
 4.228364e-03 -1.049006e-02 0.000000e+00  
 3.613909e-03 -1.044469e-02 0.000000e+00  
 3.004257e-03 -1.040629e-02 0.000000e+00  
 2.398605e-03 -1.037487e-02 0.000000e+00  
 1.796154e-03 -1.035043e-02 0.000000e+00  
 1.196103e-03 -1.033297e-02 0.000000e+00  
 5.976515e-04 -1.032249e-02 0.000000e+00  
 3.571471e-12 -1.031900e-02 0.000000e+00  
 -5.976515e-04 -1.032249e-02 0.000000e+00  
 -1.196103e-03 -1.033297e-02 0.000000e+00  
 -1.796154e-03 -1.035043e-02 0.000000e+00  
 -2.398605e-03 -1.037487e-02 0.000000e+00  
 -3.004257e-03 -1.040629e-02 0.000000e+00  
 -3.613909e-03 -1.044469e-02 0.000000e+00  
 -4.228364e-03 -1.049006e-02 0.000000e+00  
 -4.848422e-03 -1.054239e-02 0.000000e+00  
 -5.474885e-03 -1.060168e-02 0.000000e+00  
 -6.108555e-03 -1.066792e-02 0.000000e+00  
 5.393887e-03 -8.137171e-03 0.000000e+00  
 4.831559e-03 -8.065264e-03 0.000000e+00  
 4.276480e-03 -8.000908e-03 0.000000e+00  
 3.727842e-03 -7.944108e-03 0.000000e+00  
 3.184837e-03 -7.894870e-03 0.000000e+00  
 2.646660e-03 -7.853198e-03 0.000000e+00  
 2.112503e-03 -7.819097e-03 0.000000e+00  
 1.581564e-03 -7.792570e-03 0.000000e+00  
 1.053036e-03 -7.773620e-03 0.000000e+00  
 5.261159e-04 -7.762249e-03 0.000000e+00  
 -2.994009e-12 -7.758458e-03 0.000000e+00  
 -5.261160e-04 -7.762249e-03 0.000000e+00  
 -1.053036e-03 -7.773620e-03 0.000000e+00  
 -1.581564e-03 -7.792570e-03 0.000000e+00  
 -2.112503e-03 -7.819097e-03 0.000000e+00  
 -2.646660e-03 -7.853198e-03 0.000000e+00  
 -3.184837e-03 -7.894870e-03 0.000000e+00  
 -3.727842e-03 -7.944108e-03 0.000000e+00  
 -4.276480e-03 -8.000908e-03 0.000000e+00  
 -4.831559e-03 -8.065265e-03 0.000000e+00  
 -5.393887e-03 -8.137171e-03 0.000000e+00  
 4.690073e-03 -6.099149e-03 0.000000e+00  
 4.198038e-03 -6.022044e-03 0.000000e+00  
 3.713276e-03 -5.953038e-03 0.000000e+00  
 3.234974e-03 -5.892132e-03 0.000000e+00  
 2.762324e-03 -5.839328e-03 0.000000e+00  
 2.294520e-03 -5.794631e-03 0.000000e+00  
 1.830758e-03 -5.758045e-03 0.000000e+00  
 1.370232e-03 -5.729579e-03 0.000000e+00  
 9.121368e-04 -5.709239e-03 0.000000e+00  
 4.556627e-04 -5.697032e-03 0.000000e+00  
 -3.041045e-13 -5.692963e-03 0.000000e+00  
 -4.556628e-04 -5.697032e-03 0.000000e+00  
 -9.121368e-04 -5.709239e-03 0.000000e+00  
 -1.370232e-03 -5.729579e-03 0.000000e+00  
 -1.830758e-03 -5.758045e-03 0.000000e+00  
 -2.294520e-03 -5.794631e-03 0.000000e+00  
 -2.762324e-03 -5.839328e-03 0.000000e+00  
 -3.234974e-03 -5.892132e-03 0.000000e+00  
 -3.713276e-03 -5.953038e-03 0.000000e+00  
 -4.198038e-03 -6.022044e-03 0.000000e+00  
 -4.690073e-03 -6.099149e-03 0.000000e+00  
 4.010663e-03 -4.495161e-03 0.000000e+00  
 3.586523e-03 -4.413350e-03 0.000000e+00  
 3.169622e-03 -4.340122e-03 0.000000e+00  
 2.759161e-03 -4.275464e-03 0.000000e+00  
 2.354356e-03 -4.219371e-03 0.000000e+00  
 1.954424e-03 -4.171851e-03 0.000000e+00  
 1.558580e-03 -4.132922e-03 0.000000e+00  
 1.166029e-03 -4.102606e-03 0.000000e+00  
 7.759634e-04 -4.080929e-03 0.000000e+00  
 3.875638e-04 -4.067913e-03 0.000000e+00  
 9.544359e-13 -4.063572e-03 0.000000e+00  
 -3.875639e-04 -4.067913e-03 0.000000e+00  
 -7.759634e-04 -4.080929e-03 0.000000e+00  
 -1.166029e-03 -4.102606e-03 0.000000e+00  
 -1.558580e-03 -4.132922e-03 0.000000e+00  
 -1.954424e-03 -4.171851e-03 0.000000e+00  
 -2.354356e-03 -4.219371e-03 0.000000e+00  
 -2.759161e-03 -4.275464e-03 0.000000e+00  
 -3.169622e-03 -4.340122e-03 0.000000e+00  
 -3.586523e-03 -4.413350e-03 0.000000e+00  
 -4.010663e-03 -4.495161e-03 0.000000e+00  
 3.366926e-03 -3.262538e-03 0.000000e+00  
 3.007104e-03 -3.176558e-03 0.000000e+00  
 2.654352e-03 -3.099550e-03 0.000000e+00  
 2.307958e-03 -3.031466e-03 0.000000e+00  
 1.967228e-03 -2.972300e-03 0.000000e+00  
 1.631459e-03 -2.922080e-03 0.000000e+00  
 1.299921e-03 -2.880859e-03 0.000000e+00  
 9.718404e-04 -2.848703e-03 0.000000e+00  
 6.464024e-04 -2.825679e-03 0.000000e+00  
 3.227507e-04 -2.811840e-03 0.000000e+00  
 -6.077222e-17 -2.807223e-03 0.000000e+00  
 -3.227507e-04 -2.811840e-03 0.000000e+00  
 -6.464024e-04 -2.825679e-03 0.000000e+00  
 -9.718404e-04 -2.848703e-03 0.000000e+00  
 -1.299921e-03 -2.880859e-03 0.000000e+00  
 -1.631459e-03 -2.922080e-03 0.000000e+00  
 -1.967228e-03 -2.972300e-03 0.000000e+00  
 -2.307958e-03 -3.031466e-03 0.000000e+00  
 -2.654352e-03 -3.099550e-03 0.000000e+00  
 -3.007104e-03 -3.176558e-03 0.000000e+00  
 2.767928e-03 -2.338605e-03 0.000000e+00  
 2.467724e-03 -2.249069e-03 0.000000e+00  
 2.174210e-03 -2.168736e-03 0.000000e+00  
 1.886935e-03 -2.097522e-03 0.000000e+00  
 1.605436e-03 -2.035448e-03 0.000000e+00  
 1.329173e-03 -1.982609e-03 0.000000e+00  
 -3.366926e-03 -3.262538e-03 0.000000e+00  
 1.057498e-03 -1.939139e-03 0.000000e+00  
 7.896477e-04 -1.905172e-03 0.000000e+00  
 5.247527e-04 -1.880826e-03 0.000000e+00  
 2.618680e-04 -1.866185e-03 0.000000e+00  
 -1.313592e-13 -1.861300e-03 0.000000e+00  
 -2.618680e-04 -1.866185e-03 0.000000e+00  
 -5.247526e-04 -1.880826e-03 0.000000e+00  
 -7.896477e-04 -1.905172e-03 0.000000e+00  
 -1.057498e-03 -1.939139e-03 0.000000e+00  
 -1.329173e-03 -1.982609e-03 0.000000e+00  
 -1.605436e-03 -2.035448e-03 0.000000e+00  
 -1.886936e-03 -2.097522e-03 0.000000e+00  
 -2.174210e-03 -2.168736e-03 0.000000e+00  
 2.220621e-03 -1.663410e-03 0.000000e+00  
 1.974105e-03 -1.571018e-03 0.000000e+00  
 1.733738e-03 -1.487820e-03 0.000000e+00  
 1.499671e-03 -1.413780e-03 0.000000e+00  
 1.271855e-03 -1.349053e-03 0.000000e+00  
 -2.467724e-03 -2.249069e-03 0.000000e+00  
 1.049949e-03 -1.293899e-03 0.000000e+00  
 8.333068e-04 -1.248553e-03 0.000000e+00  
 6.210486e-04 -1.213188e-03 0.000000e+00  
 -2.767928e-03 -2.338605e-03 0.000000e+00  
 4.121479e-04 -1.187896e-03 0.000000e+00  
 2.055069e-04 -1.172715e-03 0.000000e+00  
 1.086466e-13 -1.167655e-03 0.000000e+00  
 -2.055069e-04 -1.172715e-03 0.000000e+00  
 -4.121479e-04 -1.187896e-03 0.000000e+00  
 -6.210486e-04 -1.213188e-03 0.000000e+00  
 -8.333068e-04 -1.248553e-03 0.000000e+00  
 -1.049949e-03 -1.293899e-03 0.000000e+00  
 -1.271855e-03 -1.349053e-03 0.000000e+00  
 -1.499671e-03 -1.413779e-03 0.000000e+00  
 1.729704e-03 -1.181348e-03 0.000000e+00  
 1.529472e-03 -1.086800e-03 0.000000e+00  
 1.335143e-03 -1.001188e-03 0.000000e+00  
 1.147977e-03 -9.247882e-04 0.000000e+00  
 -1.733738e-03 -1.487820e-03 0.000000e+00  
 9.683887e-04 -8.581976e-04 0.000000e+00  
 7.959225e-04 -8.018771e-04 0.000000e+00  
 6.295685e-04 -7.560460e-04 0.000000e+00  
 4.680610e-04 -7.206712e-04 0.000000e+00  
 -1.974105e-03 -1.571018e-03 0.000000e+00  
 3.101117e-04 -6.955946e-04 0.000000e+00  
 1.544840e-04 -6.806370e-04 0.000000e+00  
 -2.220621e-03 -1.663410e-03 0.000000e+00  
 -2.501105e-13 -6.756670e-04 0.000000e+00  
 -1.544840e-04 -6.806370e-04 0.000000e+00  
 -3.101117e-04 -6.955946e-04 0.000000e+00  
 -4.680610e-04 -7.206712e-04 0.000000e+00  
 -6.295686e-04 -7.560460e-04 0.000000e+00  
 -7.959225e-04 -8.018772e-04 0.000000e+00  
 -9.683887e-04 -8.581976e-04 0.000000e+00  
 1.297237e-03 -8.418715e-04 0.000000e+00  
 1.134065e-03 -7.457844e-04 0.000000e+00  
 9.783136e-04 -6.581620e-04 0.000000e+00  
 8.327082e-04 -5.806745e-04 0.000000e+00  
 -1.147977e-03 -9.247882e-04 0.000000e+00  
 6.971720e-04 -5.144940e-04 0.000000e+00  
 5.701024e-04 -4.600246e-04 0.000000e+00  
 4.494420e-04 -4.168172e-04 0.000000e+00  
 -1.335143e-03 -1.001188e-03 0.000000e+00  
 3.334319e-04 -3.841628e-04 0.000000e+00  
 2.206275e-04 -3.613756e-04 0.000000e+00  
 1.098307e-04 -3.479233e-04 0.000000e+00  
 -1.529472e-03 -1.086800e-03 0.000000e+00  
 -5.377248e-14 -3.434761e-04 0.000000e+00  
 -1.098307e-04 -3.479233e-04 0.000000e+00  
 -1.729704e-03 -1.181348e-03 0.000000e+00  
 -2.206275e-04 -3.613756e-04 0.000000e+00  
 -3.334319e-04 -3.841628e-04 0.000000e+00  
 -4.494420e-04 -4.168172e-04 0.000000e+00  
 -5.701024e-04 -4.600246e-04 0.000000e+00  
 9.217563e-04 -5.999809e-04 0.000000e+00  
 7.845437e-04 -5.020769e-04 0.000000e+00  
 6.618508e-04 -4.138203e-04 0.000000e+00  
 5.555772e-04 -3.388128e-04 0.000000e+00  
 -6.971720e-04 -5.144940e-04 0.000000e+00  
 4.620147e-04 -2.786453e-04 0.000000e+00  
 3.765350e-04 -2.315633e-04 0.000000e+00  
 2.963764e-04 -1.955994e-04 0.000000e+00  
 -8.327082e-04 -5.806745e-04 0.000000e+00  
 2.197246e-04 -1.691369e-04 0.000000e+00  
 1.453504e-04 -1.510017e-04 0.000000e+00  
 7.235086e-05 -1.404144e-04 0.000000e+00  
 -9.783136e-04 -6.581620e-04 0.000000e+00  
 -3.812902e-14 -1.369330e-04 0.000000e+00  
 -1.134065e-03 -7.457844e-04 0.000000e+00  
 -7.235086e-05 -1.404144e-04 0.000000e+00  
 -1.453503e-04 -1.510017e-04 0.000000e+00  
 -1.297237e-03 -8.418715e-04 0.000000e+00  
 -2.197246e-04 -1.691369e-04 0.000000e+00  
 -2.963764e-04 -1.955994e-04 0.000000e+00  
 5.973927e-04 -4.131688e-04 0.000000e+00  
 4.744182e-04 -3.150248e-04 0.000000e+00  
 3.863744e-04 -2.300033e-04 0.000000e+00  
 3.221969e-04 -1.685597e-04 0.000000e+00  
 -3.765350e-04 -2.315633e-04 0.000000e+00  
 2.675789e-04 -1.236415e-04 0.000000e+00  
 2.182752e-04 -9.043342e-05 0.000000e+00  
 1.720394e-04 -6.593456e-05 0.000000e+00  
 -4.620147e-04 -2.786453e-04 0.000000e+00  
 1.277048e-04 -4.829733e-05 0.000000e+00  
 8.455867e-05 -3.637399e-05 0.000000e+00  
 -5.555772e-04 -3.388128e-04 0.000000e+00  
 4.211526e-05 -2.946885e-05 0.000000e+00  
 2.204523e-13 -2.720671e-05 0.000000e+00  
 -6.618508e-04 -4.138203e-04 0.000000e+00  
 -4.211526e-05 -2.946885e-05 0.000000e+00  
 -8.455866e-05 -3.637398e-05 0.000000e+00  
 -7.845437e-04 -5.020769e-04 0.000000e+00  
 -1.277048e-04 -4.829732e-05 0.000000e+00  
 3.031102e-04 -2.495067e-04 0.000000e+00  
 1.988009e-04 -1.420395e-04 0.000000e+00  
 1.646417e-04 -8.885297e-05 0.000000e+00  
 -9.217563e-04 -5.999809e-04 0.000000e+00  
 1.378042e-04 -5.652884e-05 0.000000e+00  
 -1.720394e-04 -6.593455e-05 0.000000e+00  
 1.152348e-04 -3.437459e-05 0.000000e+00  
 9.446257e-05 -1.848672e-05 0.000000e+00  
 7.472623e-05 -6.949234e-06 0.000000e+00  
 -2.182752e-04 -9.043339e-05 0.000000e+00  
 5.561227e-05 1.279636e-06 0.000000e+00  
 3.688627e-05 6.810945e-06 0.000000e+00  
 -2.675789e-04 -1.236414e-04 0.000000e+00  
 1.838953e-05 1.000355e-05 0.000000e+00  
 -2.078348e-14 1.104782e-05 0.000000e+00  
 -3.221969e-04 -1.685596e-04 0.000000e+00  
 -1.838954e-05 1.000355e-05 0.000000e+00  
 -3.863743e-04 -2.300033e-04 0.000000e+00  
 -3.688627e-05 6.810945e-06 0.000000e+00  
 0.000000e+00 0.000000e+00 0.000000e+00  
 0.000000e+00 0.000000e+00 0.000000e+00  
 0.000000e+00 0.000000e+00 0.000000e+00  
 0.000000e+00 0.000000e+00 0.000000e+00  
 -5.561227e-05 1.279636e-06 0.000000e+00  
 0.000000e+00 0.000000e+00 0.000000e+00  
 -4.744181e-04 -3.150247e-04 0.000000e+00  
 0.000000e+00 0.000000e+00 0.000000e+00  
 0.000000e+00 0.000000e+00 0.000000e+00  
 -7.472623e-05 -6.949235e-06 0.000000e+00  
 0.000000e+00 0.000000e+00 0.000000e+00  
 -5.973927e-04 -4.131688e-04 0.000000e+00  
 0.000000e+00 0.000000e+00 0.000000e+00  
 -9.446257e-05 -1.848672e-05 0.000000e+00  
 0.000000e+00 0.000000e+00 0.000000e+00  
 0.000000e+00 0.000000e+00 0.000000e+00  
 -1.152348e-04 -3.437459e-05 0.000000e+00  
 0.000000e+00 0.000000e+00 0.000000e+00  
 -1.378042e-04 -5.652884e-05 0.000000e+00  
 0.000000e+00 0.000000e+00 0.000000e+00  
 0.000000e+00 0.000000e+00 0.000000e+00  
 -1.646417e-04 -8.885297e-05 0.000000e+00  
 0.000000e+00 0.000000e+00 0.000000e+00  
 -1.988009e-04 -1.420395e-04 0.000000e+00  
 0.000000e+00 0.000000e+00 0.000000e+00  
 -3.031102e-04 -2.495067e-04 0.000000e+00  
 0.000000e+00 0.000000e+00 0.000000e+00  
 0.000000e+00 0.000000e+00 0.000000e+00  