# vtk DataFile Version 1.0 
PolyMesh 
ASCII 
 
DATASET POLYDATA 
 
POINTS 165 float 
4.000000e+01 0.000000e+00 0.000000e+00  
 4.000000e+01 1.000000e+00 0.000000e+00  
 4.000000e+01 2.000000e+00 0.000000e+00  
 4.000000e+01 3.000000e+00 0.000000e+00  
 4.000000e+01 4.000000e+00 0.000000e+00  
 4.000000e+01 5.000000e+00 0.000000e+00  
 4.000000e+01 6.000000e+00 0.000000e+00  
 4.000000e+01 7.000000e+00 0.000000e+00  
 3.250000e+01 0.000000e+00 0.000000e+00  
 3.250000e+01 1.000000e+00 0.000000e+00  
 3.250000e+01 2.000000e+00 0.000000e+00  
 4.000000e+01 8.000000e+00 0.000000e+00  
 3.250000e+01 3.000000e+00 0.000000e+00  
 3.250000e+01 4.000000e+00 0.000000e+00  
 4.000000e+01 9.000000e+00 0.000000e+00  
 3.250000e+01 5.000000e+00 0.000000e+00  
 3.250000e+01 6.000000e+00 0.000000e+00  
 4.000000e+01 1.000000e+01 0.000000e+00  
 3.250000e+01 7.000000e+00 0.000000e+00  
 3.250000e+01 8.000000e+00 0.000000e+00  
 3.250000e+01 9.000000e+00 0.000000e+00  
 3.250000e+01 1.000000e+01 0.000000e+00  
 2.500000e+01 0.000000e+00 0.000000e+00  
 2.500000e+01 1.000000e+00 0.000000e+00  
 2.500000e+01 2.000000e+00 0.000000e+00  
 2.500000e+01 3.000000e+00 0.000000e+00  
 2.500000e+01 4.000000e+00 0.000000e+00  
 2.500000e+01 5.000000e+00 0.000000e+00  
 2.500000e+01 6.000000e+00 0.000000e+00  
 2.500000e+01 7.000000e+00 0.000000e+00  
 2.500000e+01 8.000000e+00 0.000000e+00  
 2.500000e+01 9.000000e+00 0.000000e+00  
 2.500000e+01 1.000000e+01 0.000000e+00  
 1.750000e+01 0.000000e+00 0.000000e+00  
 1.750000e+01 1.000000e+00 0.000000e+00  
 1.750000e+01 2.000000e+00 0.000000e+00  
 1.750000e+01 3.000000e+00 0.000000e+00  
 1.750000e+01 4.000000e+00 0.000000e+00  
 1.750000e+01 5.000000e+00 0.000000e+00  
 1.750000e+01 6.000000e+00 0.000000e+00  
 1.750000e+01 7.000000e+00 0.000000e+00  
 1.750000e+01 8.000000e+00 0.000000e+00  
 1.750000e+01 9.000000e+00 0.000000e+00  
 1.750000e+01 1.000000e+01 0.000000e+00  
 1.000000e+01 0.000000e+00 0.000000e+00  
 1.000000e+01 1.000000e+00 0.000000e+00  
 1.000000e+01 2.000000e+00 0.000000e+00  
 1.000000e+01 3.000000e+00 0.000000e+00  
 1.000000e+01 4.000000e+00 0.000000e+00  
 1.000000e+01 5.000000e+00 0.000000e+00  
 1.000000e+01 6.000000e+00 0.000000e+00  
 1.000000e+01 7.000000e+00 0.000000e+00  
 9.000000e+00 0.000000e+00 0.000000e+00  
 9.000000e+00 1.000000e+00 0.000000e+00  
 1.000000e+01 8.000000e+00 0.000000e+00  
 9.000000e+00 2.000000e+00 0.000000e+00  
 9.000000e+00 3.000000e+00 0.000000e+00  
 9.000000e+00 4.000000e+00 0.000000e+00  
 1.000000e+01 9.000000e+00 0.000000e+00  
 9.000000e+00 5.000000e+00 0.000000e+00  
 9.000000e+00 6.000000e+00 0.000000e+00  
 1.000000e+01 1.000000e+01 0.000000e+00  
 9.000000e+00 7.000000e+00 0.000000e+00  
 8.000000e+00 0.000000e+00 0.000000e+00  
 9.000000e+00 8.000000e+00 0.000000e+00  
 8.000000e+00 1.000000e+00 0.000000e+00  
 8.000000e+00 2.000000e+00 0.000000e+00  
 8.000000e+00 3.000000e+00 0.000000e+00  
 8.000000e+00 4.000000e+00 0.000000e+00  
 9.000000e+00 9.000000e+00 0.000000e+00  
 8.000000e+00 5.000000e+00 0.000000e+00  
 8.000000e+00 6.000000e+00 0.000000e+00  
 9.000000e+00 1.000000e+01 0.000000e+00  
 8.000000e+00 7.000000e+00 0.000000e+00  
 8.000000e+00 8.000000e+00 0.000000e+00  
 7.000000e+00 0.000000e+00 0.000000e+00  
 7.000000e+00 1.000000e+00 0.000000e+00  
 7.000000e+00 2.000000e+00 0.000000e+00  
 7.000000e+00 3.000000e+00 0.000000e+00  
 7.000000e+00 4.000000e+00 0.000000e+00  
 8.000000e+00 9.000000e+00 0.000000e+00  
 7.000000e+00 5.000000e+00 0.000000e+00  
 8.000000e+00 1.000000e+01 0.000000e+00  
 7.000000e+00 6.000000e+00 0.000000e+00  
 7.000000e+00 7.000000e+00 0.000000e+00  
 7.000000e+00 8.000000e+00 0.000000e+00  
 6.000000e+00 0.000000e+00 0.000000e+00  
 6.000000e+00 1.000000e+00 0.000000e+00  
 6.000000e+00 2.000000e+00 0.000000e+00  
 6.000000e+00 3.000000e+00 0.000000e+00  
 7.000000e+00 9.000000e+00 0.000000e+00  
 6.000000e+00 4.000000e+00 0.000000e+00  
 6.000000e+00 5.000000e+00 0.000000e+00  
 7.000000e+00 1.000000e+01 0.000000e+00  
 6.000000e+00 6.000000e+00 0.000000e+00  
 6.000000e+00 7.000000e+00 0.000000e+00  
 6.000000e+00 8.000000e+00 0.000000e+00  
 5.000000e+00 0.000000e+00 0.000000e+00  
 5.000000e+00 1.000000e+00 0.000000e+00  
 5.000000e+00 2.000000e+00 0.000000e+00  
 5.000000e+00 3.000000e+00 0.000000e+00  
 6.000000e+00 9.000000e+00 0.000000e+00  
 5.000000e+00 4.000000e+00 0.000000e+00  
 5.000000e+00 5.000000e+00 0.000000e+00  
 6.000000e+00 1.000000e+01 0.000000e+00  
 5.000000e+00 6.000000e+00 0.000000e+00  
 5.000000e+00 7.000000e+00 0.000000e+00  
 5.000000e+00 8.000000e+00 0.000000e+00  
 4.000000e+00 0.000000e+00 0.000000e+00  
 4.000000e+00 1.000000e+00 0.000000e+00  
 4.000000e+00 2.000000e+00 0.000000e+00  
 4.000000e+00 3.000000e+00 0.000000e+00  
 5.000000e+00 9.000000e+00 0.000000e+00  
 4.000000e+00 4.000000e+00 0.000000e+00  
 4.000000e+00 5.000000e+00 0.000000e+00  
 5.000000e+00 1.000000e+01 0.000000e+00  
 4.000000e+00 6.000000e+00 0.000000e+00  
 4.000000e+00 7.000000e+00 0.000000e+00  
 4.000000e+00 8.000000e+00 0.000000e+00  
 3.000000e+00 0.000000e+00 0.000000e+00  
 3.000000e+00 1.000000e+00 0.000000e+00  
 3.000000e+00 2.000000e+00 0.000000e+00  
 4.000000e+00 9.000000e+00 0.000000e+00  
 3.000000e+00 3.000000e+00 0.000000e+00  
 3.000000e+00 4.000000e+00 0.000000e+00  
 3.000000e+00 5.000000e+00 0.000000e+00  
 4.000000e+00 1.000000e+01 0.000000e+00  
 3.000000e+00 6.000000e+00 0.000000e+00  
 3.000000e+00 7.000000e+00 0.000000e+00  
 3.000000e+00 8.000000e+00 0.000000e+00  
 2.000000e+00 0.000000e+00 0.000000e+00  
 2.000000e+00 1.000000e+00 0.000000e+00  
 2.000000e+00 2.000000e+00 0.000000e+00  
 3.000000e+00 9.000000e+00 0.000000e+00  
 2.000000e+00 3.000000e+00 0.000000e+00  
 2.000000e+00 4.000000e+00 0.000000e+00  
 3.000000e+00 1.000000e+01 0.000000e+00  
 2.000000e+00 5.000000e+00 0.000000e+00  
 2.000000e+00 6.000000e+00 0.000000e+00  
 2.000000e+00 7.000000e+00 0.000000e+00  
 2.000000e+00 8.000000e+00 0.000000e+00  
 1.000000e+00 0.000000e+00 0.000000e+00  
 1.000000e+00 1.000000e+00 0.000000e+00  
 1.000000e+00 2.000000e+00 0.000000e+00  
 2.000000e+00 9.000000e+00 0.000000e+00  
 1.000000e+00 3.000000e+00 0.000000e+00  
 1.000000e+00 4.000000e+00 0.000000e+00  
 2.000000e+00 1.000000e+01 0.000000e+00  
 1.000000e+00 5.000000e+00 0.000000e+00  
 1.000000e+00 6.000000e+00 0.000000e+00  
 1.000000e+00 7.000000e+00 0.000000e+00  
 1.000000e+00 8.000000e+00 0.000000e+00  
 0.000000e+00 0.000000e+00 0.000000e+00  
 0.000000e+00 1.000000e+00 0.000000e+00  
 1.000000e+00 9.000000e+00 0.000000e+00  
 0.000000e+00 2.000000e+00 0.000000e+00  
 0.000000e+00 3.000000e+00 0.000000e+00  
 0.000000e+00 4.000000e+00 0.000000e+00  
 1.000000e+00 1.000000e+01 0.000000e+00  
 0.000000e+00 5.000000e+00 0.000000e+00  
 0.000000e+00 6.000000e+00 0.000000e+00  
 0.000000e+00 7.000000e+00 0.000000e+00  
 0.000000e+00 8.000000e+00 0.000000e+00  
 0.000000e+00 9.000000e+00 0.000000e+00  
 0.000000e+00 1.000000e+01 0.000000e+00  
  
 POLYGONS 140 700 
 4 163  154  158  164   
 4 162  151  154  163   
 4 161  150  151  162   
 4 160  149  150  161   
 4 159  148  149  160   
 4 157  146  148  159   
 4 156  145  146  157   
 4 155  143  145  156   
 4 153  142  143  155   
 4 152  141  142  153   
 4 154  144  147  158   
 4 151  140  144  154   
 4 150  139  140  151   
 4 149  138  139  150   
 4 148  137  138  149   
 4 146  135  137  148   
 4 145  134  135  146   
 4 143  132  134  145   
 4 142  131  132  143   
 4 141  130  131  142   
 4 144  133  136  147   
 4 140  129  133  144   
 4 139  128  129  140   
 4 138  127  128  139   
 4 137  125  127  138   
 4 135  124  125  137   
 4 134  123  124  135   
 4 132  121  123  134   
 4 131  120  121  132   
 4 130  119  120  131   
 4 133  122  126  136   
 4 129  118  122  133   
 4 128  117  118  129   
 4 127  116  117  128   
 4 125  114  116  127   
 4 124  113  114  125   
 4 123  111  113  124   
 4 121  110  111  123   
 4 120  109  110  121   
 4 119  108  109  120   
 4 122  112  115  126   
 4 118  107  112  122   
 4 117  106  107  118   
 4 116  105  106  117   
 4 114  103  105  116   
 4 113  102  103  114   
 4 111  100  102  113   
 4 110  99  100  111   
 4 109  98  99  110   
 4 108  97  98  109   
 4 112  101  104  115   
 4 107  96  101  112   
 4 106  95  96  107   
 4 105  94  95  106   
 4 103  92  94  105   
 4 102  91  92  103   
 4 100  89  91  102   
 4 99  88  89  100   
 4 98  87  88  99   
 4 97  86  87  98   
 4 101  90  93  104   
 4 96  85  90  101   
 4 95  84  85  96   
 4 94  83  84  95   
 4 92  81  83  94   
 4 91  79  81  92   
 4 89  78  79  91   
 4 88  77  78  89   
 4 87  76  77  88   
 4 86  75  76  87   
 4 90  80  82  93   
 4 85  74  80  90   
 4 84  73  74  85   
 4 83  71  73  84   
 4 81  70  71  83   
 4 79  68  70  81   
 4 78  67  68  79   
 4 77  66  67  78   
 4 76  65  66  77   
 4 75  63  65  76   
 4 80  69  72  82   
 4 74  64  69  80   
 4 73  62  64  74   
 4 71  60  62  73   
 4 70  59  60  71   
 4 68  57  59  70   
 4 67  56  57  68   
 4 66  55  56  67   
 4 65  53  55  66   
 4 63  52  53  65   
 4 69  58  61  72   
 4 64  54  58  69   
 4 62  51  54  64   
 4 60  50  51  62   
 4 59  49  50  60   
 4 57  48  49  59   
 4 56  47  48  57   
 4 55  46  47  56   
 4 53  45  46  55   
 4 52  44  45  53   
 4 33  34  45  44   
 4 22  23  34  33   
 4 8  9  23  22   
 4 0  1  9  8   
 4 34  35  46  45   
 4 23  24  35  34   
 4 9  10  24  23   
 4 1  2  10  9   
 4 35  36  47  46   
 4 24  25  36  35   
 4 10  12  25  24   
 4 2  3  12  10   
 4 36  37  48  47   
 4 25  26  37  36   
 4 12  13  26  25   
 4 3  4  13  12   
 4 37  38  49  48   
 4 26  27  38  37   
 4 13  15  27  26   
 4 4  5  15  13   
 4 38  39  50  49   
 4 27  28  39  38   
 4 15  16  28  27   
 4 5  6  16  15   
 4 39  40  51  50   
 4 28  29  40  39   
 4 16  18  29  28   
 4 6  7  18  16   
 4 40  41  54  51   
 4 29  30  41  40   
 4 18  19  30  29   
 4 7  11  19  18   
 4 41  42  58  54   
 4 30  31  42  41   
 4 19  20  31  30   
 4 11  14  20  19   
 4 42  43  61  58   
 4 31  32  43  42   
 4 20  21  32  31   
 4 14  17  21  20   
  
 POINT_DATA 165 
 VECTORS Displacement float 
 -1.028020e-02 -5.851552e-02 0.000000e+00  
 -8.188324e-03 -5.850532e-02 0.000000e+00  
 -6.120570e-03 -5.849320e-02 0.000000e+00  
 -4.070510e-03 -5.848220e-02 0.000000e+00  
 -2.032281e-03 -5.847467e-02 0.000000e+00  
 -3.630818e-14 -5.847200e-02 0.000000e+00  
 2.032281e-03 -5.847467e-02 0.000000e+00  
 4.070510e-03 -5.848220e-02 0.000000e+00  
 -9.937176e-03 -4.290069e-02 0.000000e+00  
 -7.915961e-03 -4.287915e-02 0.000000e+00  
 -5.916324e-03 -4.286312e-02 0.000000e+00  
 6.120570e-03 -5.849320e-02 0.000000e+00  
 -3.934203e-03 -4.285219e-02 0.000000e+00  
 -1.964073e-03 -4.284586e-02 0.000000e+00  
 8.188324e-03 -5.850532e-02 0.000000e+00  
 -1.485528e-11 -4.284379e-02 0.000000e+00  
 1.964073e-03 -4.284586e-02 0.000000e+00  
 1.028020e-02 -5.851552e-02 0.000000e+00  
 3.934203e-03 -4.285219e-02 0.000000e+00  
 5.916324e-03 -4.286312e-02 0.000000e+00  
 7.915961e-03 -4.287915e-02 0.000000e+00  
 9.937176e-03 -4.290069e-02 0.000000e+00  
 -8.948903e-03 -2.831974e-02 0.000000e+00  
 -7.125272e-03 -2.827203e-02 0.000000e+00  
 -5.326062e-03 -2.823592e-02 0.000000e+00  
 -3.542507e-03 -2.821038e-02 0.000000e+00  
 -1.768834e-03 -2.819512e-02 0.000000e+00  
 4.983300e-12 -2.819004e-02 0.000000e+00  
 1.768834e-03 -2.819512e-02 0.000000e+00  
 3.542507e-03 -2.821038e-02 0.000000e+00  
 5.326062e-03 -2.823592e-02 0.000000e+00  
 7.125272e-03 -2.827203e-02 0.000000e+00  
 8.948903e-03 -2.831974e-02 0.000000e+00  
 -7.284334e-03 -1.573051e-02 0.000000e+00  
 -5.808581e-03 -1.565825e-02 0.000000e+00  
 -4.340252e-03 -1.559970e-02 0.000000e+00  
 -2.884775e-03 -1.555696e-02 0.000000e+00  
 -1.439610e-03 -1.553098e-02 0.000000e+00  
 1.600662e-11 -1.552226e-02 0.000000e+00  
 1.439610e-03 -1.553098e-02 0.000000e+00  
 2.884775e-03 -1.555696e-02 0.000000e+00  
 4.340252e-03 -1.559970e-02 0.000000e+00  
 5.808581e-03 -1.565825e-02 0.000000e+00  
 7.284334e-03 -1.573051e-02 0.000000e+00  
 -5.048139e-03 -6.056333e-03 0.000000e+00  
 -3.938780e-03 -5.963396e-03 0.000000e+00  
 -2.907932e-03 -5.887785e-03 0.000000e+00  
 -1.918721e-03 -5.832349e-03 0.000000e+00  
 -9.537131e-04 -5.798677e-03 0.000000e+00  
 -8.675784e-13 -5.787393e-03 0.000000e+00  
 9.537131e-04 -5.798677e-03 0.000000e+00  
 1.918721e-03 -5.832349e-03 0.000000e+00  
 -4.571584e-03 -5.059599e-03 0.000000e+00  
 -3.607020e-03 -4.939215e-03 0.000000e+00  
 2.907932e-03 -5.887785e-03 0.000000e+00  
 -2.664016e-03 -4.860093e-03 0.000000e+00  
 -1.757397e-03 -4.804575e-03 0.000000e+00  
 -8.732079e-04 -4.771074e-03 0.000000e+00  
 3.938780e-03 -5.963396e-03 0.000000e+00  
 -7.489011e-13 -4.759856e-03 0.000000e+00  
 8.732080e-04 -4.771074e-03 0.000000e+00  
 5.048139e-03 -6.056333e-03 0.000000e+00  
 1.757397e-03 -4.804575e-03 0.000000e+00  
 -4.110400e-03 -4.143558e-03 0.000000e+00  
 2.664016e-03 -4.860093e-03 0.000000e+00  
 -3.247891e-03 -4.021127e-03 0.000000e+00  
 -2.405462e-03 -3.929833e-03 0.000000e+00  
 -1.587091e-03 -3.868568e-03 0.000000e+00  
 -7.885047e-04 -3.832553e-03 0.000000e+00  
 3.607020e-03 -4.939215e-03 0.000000e+00  
 -4.971882e-13 -3.820617e-03 0.000000e+00  
 7.885047e-04 -3.832553e-03 0.000000e+00  
 4.571584e-03 -5.059599e-03 0.000000e+00  
 1.587091e-03 -3.868568e-03 0.000000e+00  
 2.405462e-03 -3.929833e-03 0.000000e+00  
 -3.644767e-03 -3.318253e-03 0.000000e+00  
 -2.876940e-03 -3.191553e-03 0.000000e+00  
 -2.131604e-03 -3.094632e-03 0.000000e+00  
 -1.407057e-03 -3.027095e-03 0.000000e+00  
 -6.990008e-04 -2.987466e-03 0.000000e+00  
 3.247891e-03 -4.021127e-03 0.000000e+00  
 -3.529176e-13 -2.974373e-03 0.000000e+00  
 4.110400e-03 -4.143558e-03 0.000000e+00  
 6.990009e-04 -2.987466e-03 0.000000e+00  
 1.407057e-03 -3.027095e-03 0.000000e+00  
 2.131604e-03 -3.094632e-03 0.000000e+00  
 -3.168347e-03 -2.584692e-03 0.000000e+00  
 -2.495411e-03 -2.454356e-03 0.000000e+00  
 -1.846456e-03 -2.353038e-03 0.000000e+00  
 -1.217893e-03 -2.281070e-03 0.000000e+00  
 2.876940e-03 -3.191553e-03 0.000000e+00  
 -6.047651e-04 -2.238186e-03 0.000000e+00  
 -2.381996e-13 -2.223966e-03 0.000000e+00  
 3.644767e-03 -3.318253e-03 0.000000e+00  
 6.047651e-04 -2.238186e-03 0.000000e+00  
 1.217893e-03 -2.281070e-03 0.000000e+00  
 1.846456e-03 -2.353038e-03 0.000000e+00  
 -2.679833e-03 -1.946337e-03 0.000000e+00  
 -2.103133e-03 -1.812336e-03 0.000000e+00  
 -1.551256e-03 -1.707325e-03 0.000000e+00  
 -1.020816e-03 -1.631943e-03 0.000000e+00  
 2.495411e-03 -2.454356e-03 0.000000e+00  
 -5.062231e-04 -1.586743e-03 0.000000e+00  
 -1.367342e-13 -1.571702e-03 0.000000e+00  
 3.168347e-03 -2.584692e-03 0.000000e+00  
 5.062231e-04 -1.586743e-03 0.000000e+00  
 1.020816e-03 -1.631943e-03 0.000000e+00  
 1.551256e-03 -1.707325e-03 0.000000e+00  
 -2.179604e-03 -1.405156e-03 0.000000e+00  
 -1.699736e-03 -1.267747e-03 0.000000e+00  
 -1.246208e-03 -1.159474e-03 0.000000e+00  
 -8.166082e-04 -1.082030e-03 0.000000e+00  
 2.103133e-03 -1.812336e-03 0.000000e+00  
 -4.040311e-04 -1.035933e-03 0.000000e+00  
 -6.658764e-14 -1.020725e-03 0.000000e+00  
 2.679833e-03 -1.946337e-03 0.000000e+00  
 4.040311e-04 -1.035933e-03 0.000000e+00  
 8.166082e-04 -1.082030e-03 0.000000e+00  
 1.246208e-03 -1.159474e-03 0.000000e+00  
 -1.668924e-03 -9.611969e-04 0.000000e+00  
 -1.284385e-03 -8.203157e-04 0.000000e+00  
 -9.314579e-04 -7.105536e-04 0.000000e+00  
 1.699736e-03 -1.267747e-03 0.000000e+00  
 -6.066606e-04 -6.341201e-04 0.000000e+00  
 -2.995007e-04 -5.905368e-04 0.000000e+00  
 -2.184203e-14 -5.764230e-04 0.000000e+00  
 2.179604e-03 -1.405156e-03 0.000000e+00  
 2.995007e-04 -5.905368e-04 0.000000e+00  
 6.066606e-04 -6.341201e-04 0.000000e+00  
 9.314579e-04 -7.105536e-04 0.000000e+00  
 -1.149164e-03 -6.070844e-04 0.000000e+00  
 -8.550685e-04 -4.661986e-04 0.000000e+00  
 -6.089632e-04 -3.589253e-04 0.000000e+00  
 1.284385e-03 -8.203157e-04 0.000000e+00  
 -3.956109e-04 -2.939951e-04 0.000000e+00  
 -1.950867e-04 -2.590799e-04 0.000000e+00  
 1.668924e-03 -9.611969e-04 0.000000e+00  
 3.500001e-15 -2.480548e-04 0.000000e+00  
 1.950867e-04 -2.590799e-04 0.000000e+00  
 3.956109e-04 -2.939951e-04 0.000000e+00  
 6.089632e-04 -3.589253e-04 0.000000e+00  
 -6.121387e-04 -3.324018e-04 0.000000e+00  
 -4.083162e-04 -1.818855e-04 0.000000e+00  
 -2.935753e-04 -1.120425e-04 0.000000e+00  
 8.550685e-04 -4.661986e-04 0.000000e+00  
 -1.908242e-04 -7.481859e-05 0.000000e+00  
 -9.431244e-05 -5.573342e-05 0.000000e+00  
 1.149164e-03 -6.070844e-04 0.000000e+00  
 1.016937e-14 -4.982449e-05 0.000000e+00  
 9.431244e-05 -5.573342e-05 0.000000e+00  
 1.908242e-04 -7.481859e-05 0.000000e+00  
 2.935753e-04 -1.120425e-04 0.000000e+00  
 0.000000e+00 0.000000e+00 0.000000e+00  
 0.000000e+00 0.000000e+00 0.000000e+00  
 4.083162e-04 -1.818855e-04 0.000000e+00  
 0.000000e+00 0.000000e+00 0.000000e+00  
 0.000000e+00 0.000000e+00 0.000000e+00  
 0.000000e+00 0.000000e+00 0.000000e+00  
 6.121387e-04 -3.324018e-04 0.000000e+00  
 0.000000e+00 0.000000e+00 0.000000e+00  
 0.000000e+00 0.000000e+00 0.000000e+00  
 0.000000e+00 0.000000e+00 0.000000e+00  
 0.000000e+00 0.000000e+00 0.000000e+00  
 0.000000e+00 0.000000e+00 0.000000e+00  
 0.000000e+00 0.000000e+00 0.000000e+00  
  
 