# vtk DataFile Version 1.0 
PolyMesh 
ASCII 
 
DATASET POLYDATA 
 
POINTS 126 float 
4.000000e+01 1.000000e+01 0.000000e+00  
 4.000000e+01 9.500000e+00 0.000000e+00  
 4.000000e+01 9.000000e+00 0.000000e+00  
 4.000000e+01 8.500000e+00 0.000000e+00  
 4.000000e+01 8.000000e+00 0.000000e+00  
 4.000000e+01 7.500000e+00 0.000000e+00  
 4.000000e+01 7.000000e+00 0.000000e+00  
 4.000000e+01 6.500000e+00 0.000000e+00  
 4.000000e+01 6.000000e+00 0.000000e+00  
 4.000000e+01 5.500000e+00 0.000000e+00  
 4.000000e+01 5.000000e+00 0.000000e+00  
 4.000000e+01 4.500000e+00 0.000000e+00  
 4.000000e+01 4.000000e+00 0.000000e+00  
 4.000000e+01 3.500000e+00 0.000000e+00  
 4.000000e+01 3.000000e+00 0.000000e+00  
 4.000000e+01 2.500000e+00 0.000000e+00  
 4.000000e+01 2.000000e+00 0.000000e+00  
 4.000000e+01 1.500000e+00 0.000000e+00  
 3.137160e+01 1.000000e+01 0.000000e+00  
 3.137160e+01 9.500000e+00 0.000000e+00  
 3.137160e+01 9.000000e+00 0.000000e+00  
 3.137160e+01 8.500000e+00 0.000000e+00  
 3.137160e+01 8.000000e+00 0.000000e+00  
 3.137160e+01 7.500000e+00 0.000000e+00  
 4.000000e+01 1.000000e+00 0.000000e+00  
 3.137160e+01 7.000000e+00 0.000000e+00  
 3.137160e+01 6.500000e+00 0.000000e+00  
 4.000000e+01 5.000000e-01 0.000000e+00  
 3.137160e+01 6.000000e+00 0.000000e+00  
 3.137160e+01 5.500000e+00 0.000000e+00  
 3.137160e+01 5.000000e+00 0.000000e+00  
 4.000000e+01 0.000000e+00 0.000000e+00  
 3.137160e+01 4.500000e+00 0.000000e+00  
 3.137160e+01 4.000000e+00 0.000000e+00  
 3.137160e+01 3.500000e+00 0.000000e+00  
 3.137160e+01 3.000000e+00 0.000000e+00  
 3.137160e+01 2.500000e+00 0.000000e+00  
 3.137160e+01 2.000000e+00 0.000000e+00  
 3.137160e+01 1.500000e+00 0.000000e+00  
 3.137160e+01 1.000000e+00 0.000000e+00  
 3.137160e+01 4.999999e-01 0.000000e+00  
 3.137160e+01 0.000000e+00 0.000000e+00  
 2.291238e+01 1.000000e+01 0.000000e+00  
 2.291238e+01 9.500000e+00 0.000000e+00  
 2.291238e+01 9.000000e+00 0.000000e+00  
 2.291238e+01 8.500000e+00 0.000000e+00  
 2.291238e+01 8.000000e+00 0.000000e+00  
 2.291238e+01 7.500000e+00 0.000000e+00  
 2.291238e+01 7.000000e+00 0.000000e+00  
 2.291238e+01 6.500000e+00 0.000000e+00  
 2.291238e+01 6.000000e+00 0.000000e+00  
 2.291238e+01 5.500000e+00 0.000000e+00  
 2.291238e+01 5.000000e+00 0.000000e+00  
 2.291238e+01 4.500000e+00 0.000000e+00  
 2.291238e+01 4.000000e+00 0.000000e+00  
 2.291238e+01 3.500000e+00 0.000000e+00  
 2.291238e+01 3.000000e+00 0.000000e+00  
 2.291238e+01 2.500000e+00 0.000000e+00  
 2.291238e+01 2.000000e+00 0.000000e+00  
 2.291238e+01 1.500000e+00 0.000000e+00  
 2.291238e+01 1.000000e+00 0.000000e+00  
 2.291238e+01 4.999999e-01 0.000000e+00  
 2.291238e+01 0.000000e+00 0.000000e+00  
 1.477851e+01 1.000000e+01 0.000000e+00  
 1.477851e+01 9.500000e+00 0.000000e+00  
 1.477851e+01 9.000000e+00 0.000000e+00  
 1.477851e+01 8.500000e+00 0.000000e+00  
 1.477851e+01 8.000000e+00 0.000000e+00  
 1.477851e+01 7.500000e+00 0.000000e+00  
 1.477851e+01 7.000000e+00 0.000000e+00  
 1.477851e+01 6.500000e+00 0.000000e+00  
 1.477851e+01 6.000000e+00 0.000000e+00  
 1.477851e+01 5.500000e+00 0.000000e+00  
 1.477851e+01 5.000000e+00 0.000000e+00  
 1.477851e+01 4.500000e+00 0.000000e+00  
 1.477851e+01 4.000000e+00 0.000000e+00  
 1.477851e+01 3.500000e+00 0.000000e+00  
 1.477851e+01 3.000000e+00 0.000000e+00  
 1.477851e+01 2.500000e+00 0.000000e+00  
 1.477851e+01 2.000000e+00 0.000000e+00  
 1.477851e+01 1.500000e+00 0.000000e+00  
 1.477851e+01 1.000000e+00 0.000000e+00  
 1.477851e+01 5.000000e-01 0.000000e+00  
 1.477851e+01 0.000000e+00 0.000000e+00  
 7.105053e+00 1.000000e+01 0.000000e+00  
 7.105053e+00 9.500000e+00 0.000000e+00  
 7.105053e+00 9.000000e+00 0.000000e+00  
 7.105053e+00 8.500000e+00 0.000000e+00  
 7.105053e+00 8.000000e+00 0.000000e+00  
 7.105053e+00 7.500000e+00 0.000000e+00  
 7.105053e+00 7.000000e+00 0.000000e+00  
 7.105053e+00 6.500000e+00 0.000000e+00  
 7.105053e+00 6.000000e+00 0.000000e+00  
 7.105053e+00 5.500000e+00 0.000000e+00  
 7.105053e+00 5.000000e+00 0.000000e+00  
 7.105053e+00 4.500000e+00 0.000000e+00  
 7.105053e+00 4.000000e+00 0.000000e+00  
 7.105053e+00 3.500000e+00 0.000000e+00  
 7.105053e+00 3.000000e+00 0.000000e+00  
 7.105053e+00 2.500000e+00 0.000000e+00  
 7.105053e+00 2.000000e+00 0.000000e+00  
 7.105053e+00 1.500000e+00 0.000000e+00  
 7.105053e+00 1.000000e+00 0.000000e+00  
 7.105053e+00 5.000000e-01 0.000000e+00  
 7.105053e+00 0.000000e+00 0.000000e+00  
 0.000000e+00 1.000000e+01 0.000000e+00  
 0.000000e+00 9.500000e+00 0.000000e+00  
 0.000000e+00 9.000000e+00 0.000000e+00  
 0.000000e+00 8.500000e+00 0.000000e+00  
 0.000000e+00 8.000000e+00 0.000000e+00  
 0.000000e+00 7.500000e+00 0.000000e+00  
 0.000000e+00 7.000000e+00 0.000000e+00  
 0.000000e+00 6.500000e+00 0.000000e+00  
 0.000000e+00 6.000000e+00 0.000000e+00  
 0.000000e+00 5.500000e+00 0.000000e+00  
 0.000000e+00 5.000000e+00 0.000000e+00  
 0.000000e+00 4.500000e+00 0.000000e+00  
 0.000000e+00 4.000000e+00 0.000000e+00  
 0.000000e+00 3.500000e+00 0.000000e+00  
 0.000000e+00 3.000000e+00 0.000000e+00  
 0.000000e+00 2.500000e+00 0.000000e+00  
 0.000000e+00 2.000000e+00 0.000000e+00  
 0.000000e+00 1.500000e+00 0.000000e+00  
 0.000000e+00 1.000000e+00 0.000000e+00  
 0.000000e+00 5.000000e-01 0.000000e+00  
 0.000000e+00 0.000000e+00 0.000000e+00  
  
 POLYGONS 100 500 
 4 104  103  124  125   
 4 83  82  103  104   
 4 62  61  82  83   
 4 41  40  61  62   
 4 31  27  40  41   
 4 103  102  123  124   
 4 82  81  102  103   
 4 61  60  81  82   
 4 40  39  60  61   
 4 27  24  39  40   
 4 102  101  122  123   
 4 81  80  101  102   
 4 60  59  80  81   
 4 39  38  59  60   
 4 24  17  38  39   
 4 101  100  121  122   
 4 80  79  100  101   
 4 59  58  79  80   
 4 38  37  58  59   
 4 17  16  37  38   
 4 100  99  120  121   
 4 79  78  99  100   
 4 58  57  78  79   
 4 37  36  57  58   
 4 16  15  36  37   
 4 99  98  119  120   
 4 78  77  98  99   
 4 57  56  77  78   
 4 36  35  56  57   
 4 15  14  35  36   
 4 98  97  118  119   
 4 77  76  97  98   
 4 56  55  76  77   
 4 35  34  55  56   
 4 14  13  34  35   
 4 97  96  117  118   
 4 76  75  96  97   
 4 55  54  75  76   
 4 34  33  54  55   
 4 13  12  33  34   
 4 96  95  116  117   
 4 75  74  95  96   
 4 54  53  74  75   
 4 33  32  53  54   
 4 12  11  32  33   
 4 95  94  115  116   
 4 74  73  94  95   
 4 53  52  73  74   
 4 32  30  52  53   
 4 11  10  30  32   
 4 94  93  114  115   
 4 73  72  93  94   
 4 52  51  72  73   
 4 30  29  51  52   
 4 10  9  29  30   
 4 93  92  113  114   
 4 72  71  92  93   
 4 51  50  71  72   
 4 29  28  50  51   
 4 9  8  28  29   
 4 92  91  112  113   
 4 71  70  91  92   
 4 50  49  70  71   
 4 28  26  49  50   
 4 8  7  26  28   
 4 91  90  111  112   
 4 70  69  90  91   
 4 49  48  69  70   
 4 26  25  48  49   
 4 7  6  25  26   
 4 90  89  110  111   
 4 69  68  89  90   
 4 48  47  68  69   
 4 25  23  47  48   
 4 6  5  23  25   
 4 89  88  109  110   
 4 68  67  88  89   
 4 47  46  67  68   
 4 23  22  46  47   
 4 5  4  22  23   
 4 88  87  108  109   
 4 67  66  87  88   
 4 46  45  66  67   
 4 22  21  45  46   
 4 4  3  21  22   
 4 87  86  107  108   
 4 66  65  86  87   
 4 45  44  65  66   
 4 21  20  44  45   
 4 3  2  20  21   
 4 86  85  106  107   
 4 65  64  85  86   
 4 44  43  64  65   
 4 20  19  43  44   
 4 2  1  19  20   
 4 85  84  105  106   
 4 64  63  84  85   
 4 43  42  63  64   
 4 19  18  42  43   
 4 1  0  18  19   
  
 POINT_DATA 126 
 VECTORS Displacement float 
 9.247580e-03 -5.162122e-02 0.000000e+00  
 8.302801e-03 -5.161616e-02 0.000000e+00  
 7.364467e-03 -5.161049e-02 0.000000e+00  
 6.431763e-03 -5.160456e-02 0.000000e+00  
 5.503937e-03 -5.159872e-02 0.000000e+00  
 4.580271e-03 -5.159326e-02 0.000000e+00  
 3.660065e-03 -5.158843e-02 0.000000e+00  
 2.742626e-03 -5.158446e-02 0.000000e+00  
 1.827262e-03 -5.158150e-02 0.000000e+00  
 9.132847e-04 -5.157968e-02 0.000000e+00  
 -2.576760e-14 -5.157906e-02 0.000000e+00  
 -9.132847e-04 -5.157968e-02 0.000000e+00  
 -1.827262e-03 -5.158150e-02 0.000000e+00  
 -2.742626e-03 -5.158446e-02 0.000000e+00  
 -3.660065e-03 -5.158843e-02 0.000000e+00  
 -4.580271e-03 -5.159326e-02 0.000000e+00  
 -5.503937e-03 -5.159872e-02 0.000000e+00  
 -6.431763e-03 -5.160456e-02 0.000000e+00  
 8.821108e-03 -3.551275e-02 0.000000e+00  
 7.920246e-03 -3.550054e-02 0.000000e+00  
 7.024947e-03 -3.548977e-02 0.000000e+00  
 6.134830e-03 -3.548041e-02 0.000000e+00  
 5.249397e-03 -3.547242e-02 0.000000e+00  
 4.368070e-03 -3.546575e-02 0.000000e+00  
 -7.364467e-03 -5.161049e-02 0.000000e+00  
 3.490220e-03 -3.546035e-02 0.000000e+00  
 2.615182e-03 -3.545620e-02 0.000000e+00  
 -8.302801e-03 -5.161616e-02 0.000000e+00  
 1.742268e-03 -3.545326e-02 0.000000e+00  
 8.707771e-04 -3.545151e-02 0.000000e+00  
 -2.047346e-13 -3.545092e-02 0.000000e+00  
 -9.247580e-03 -5.162122e-02 0.000000e+00  
 -8.707771e-04 -3.545151e-02 0.000000e+00  
 -1.742268e-03 -3.545326e-02 0.000000e+00  
 -2.615182e-03 -3.545620e-02 0.000000e+00  
 -3.490220e-03 -3.546035e-02 0.000000e+00  
 -4.368070e-03 -3.546575e-02 0.000000e+00  
 -5.249397e-03 -3.547242e-02 0.000000e+00  
 -6.134830e-03 -3.548041e-02 0.000000e+00  
 -7.024947e-03 -3.548977e-02 0.000000e+00  
 -7.920246e-03 -3.550054e-02 0.000000e+00  
 -8.821108e-03 -3.551275e-02 0.000000e+00  
 7.605654e-03 -2.115028e-02 0.000000e+00  
 6.824889e-03 -2.112162e-02 0.000000e+00  
 6.051071e-03 -2.109630e-02 0.000000e+00  
 5.283049e-03 -2.107417e-02 0.000000e+00  
 4.519862e-03 -2.105512e-02 0.000000e+00  
 3.760675e-03 -2.103909e-02 0.000000e+00  
 3.004738e-03 -2.102603e-02 0.000000e+00  
 2.251354e-03 -2.101589e-02 0.000000e+00  
 1.499861e-03 -2.100866e-02 0.000000e+00  
 7.496190e-04 -2.100433e-02 0.000000e+00  
 5.163120e-13 -2.100289e-02 0.000000e+00  
 -7.496190e-04 -2.100433e-02 0.000000e+00  
 -1.499861e-03 -2.100866e-02 0.000000e+00  
 -2.251354e-03 -2.101589e-02 0.000000e+00  
 -3.004738e-03 -2.102603e-02 0.000000e+00  
 -3.760675e-03 -2.103909e-02 0.000000e+00  
 -4.519862e-03 -2.105512e-02 0.000000e+00  
 -5.283049e-03 -2.107417e-02 0.000000e+00  
 -6.051071e-03 -2.109630e-02 0.000000e+00  
 -6.824889e-03 -2.112162e-02 0.000000e+00  
 -7.605654e-03 -2.115028e-02 0.000000e+00  
 5.643806e-03 -9.907270e-03 0.000000e+00  
 5.064711e-03 -9.870192e-03 0.000000e+00  
 4.489071e-03 -9.836032e-03 0.000000e+00  
 3.917254e-03 -9.805162e-03 0.000000e+00  
 3.349285e-03 -9.777885e-03 0.000000e+00  
 2.784941e-03 -9.754444e-03 0.000000e+00  
 2.223823e-03 -9.735030e-03 0.000000e+00  
 1.665407e-03 -9.719788e-03 0.000000e+00  
 1.109083e-03 -9.708828e-03 0.000000e+00  
 5.541812e-04 -9.702223e-03 0.000000e+00  
 -7.839999e-13 -9.700016e-03 0.000000e+00  
 -5.541813e-04 -9.702223e-03 0.000000e+00  
 -1.109083e-03 -9.708828e-03 0.000000e+00  
 -1.665407e-03 -9.719788e-03 0.000000e+00  
 -2.223823e-03 -9.735030e-03 0.000000e+00  
 -2.784941e-03 -9.754445e-03 0.000000e+00  
 -3.349285e-03 -9.777885e-03 0.000000e+00  
 -3.917254e-03 -9.805162e-03 0.000000e+00  
 -4.489071e-03 -9.836032e-03 0.000000e+00  
 -5.064711e-03 -9.870192e-03 0.000000e+00  
 -5.643806e-03 -9.907270e-03 0.000000e+00  
 3.062360e-03 -2.856510e-03 0.000000e+00  
 2.718088e-03 -2.785129e-03 0.000000e+00  
 2.387484e-03 -2.722604e-03 0.000000e+00  
 2.068024e-03 -2.668497e-03 0.000000e+00  
 1.757612e-03 -2.622412e-03 0.000000e+00  
 1.454479e-03 -2.584005e-03 0.000000e+00  
 1.157097e-03 -2.552981e-03 0.000000e+00  
 8.641234e-04 -2.529101e-03 0.000000e+00  
 5.743501e-04 -2.512177e-03 0.000000e+00  
 2.866611e-04 -2.502076e-03 0.000000e+00  
 2.613553e-13 -2.498718e-03 0.000000e+00  
 -2.866611e-04 -2.502076e-03 0.000000e+00  
 -5.743501e-04 -2.512177e-03 0.000000e+00  
 -8.641234e-04 -2.529101e-03 0.000000e+00  
 -1.157097e-03 -2.552981e-03 0.000000e+00  
 -1.454479e-03 -2.584005e-03 0.000000e+00  
 -1.757612e-03 -2.622412e-03 0.000000e+00  
 -2.068024e-03 -2.668497e-03 0.000000e+00  
 -2.387484e-03 -2.722604e-03 0.000000e+00  
 -2.718088e-03 -2.785129e-03 0.000000e+00  
 -3.062360e-03 -2.856510e-03 0.000000e+00  
 0.000000e+00 0.000000e+00 0.000000e+00  
 0.000000e+00 0.000000e+00 0.000000e+00  
 0.000000e+00 0.000000e+00 0.000000e+00  
 0.000000e+00 0.000000e+00 0.000000e+00  
 0.000000e+00 0.000000e+00 0.000000e+00  
 0.000000e+00 0.000000e+00 0.000000e+00  
 0.000000e+00 0.000000e+00 0.000000e+00  
 0.000000e+00 0.000000e+00 0.000000e+00  
 0.000000e+00 0.000000e+00 0.000000e+00  
 0.000000e+00 0.000000e+00 0.000000e+00  
 0.000000e+00 0.000000e+00 0.000000e+00  
 0.000000e+00 0.000000e+00 0.000000e+00  
 0.000000e+00 0.000000e+00 0.000000e+00  
 0.000000e+00 0.000000e+00 0.000000e+00  
 0.000000e+00 0.000000e+00 0.000000e+00  
 0.000000e+00 0.000000e+00 0.000000e+00  
 0.000000e+00 0.000000e+00 0.000000e+00  
 0.000000e+00 0.000000e+00 0.000000e+00  
 0.000000e+00 0.000000e+00 0.000000e+00  
 0.000000e+00 0.000000e+00 0.000000e+00  
 0.000000e+00 0.000000e+00 0.000000e+00  
  
 