# vtk DataFile Version 1.0 
PolyMesh 
ASCII 
 
DATASET POLYDATA 
 
POINTS 790 float 
2.494494e+01 2.503652e+01 0.000000e+00  
 2.503998e+01 2.494862e+01 0.000000e+00  
 2.500992e+01 2.507360e+01 0.000000e+00  
 2.506825e+01 2.502241e+01 0.000000e+00  
 2.487996e+01 2.507360e+01 0.000000e+00  
 2.508254e+01 2.488111e+01 0.000000e+00  
 2.481527e+01 2.503708e+01 0.000000e+00  
 2.473903e+01 2.507771e+01 0.000000e+00  
 2.504256e+01 2.481273e+01 0.000000e+00  
 2.508427e+01 2.472787e+01 0.000000e+00  
 2.501338e+01 2.515078e+01 0.000000e+00  
 2.487673e+01 2.515207e+01 0.000000e+00  
 2.517511e+01 2.487665e+01 0.000000e+00  
 2.521673e+01 2.496438e+01 0.000000e+00  
 2.522735e+01 2.478697e+01 0.000000e+00  
 2.509742e+01 2.519991e+01 0.000000e+00  
 2.494517e+01 2.519217e+01 0.000000e+00  
 2.494517e+01 2.530386e+01 0.000000e+00  
 2.479269e+01 2.520119e+01 0.000000e+00  
 2.515243e+01 2.504263e+01 0.000000e+00  
 2.471967e+01 2.516336e+01 0.000000e+00  
 2.461183e+01 2.520673e+01 0.000000e+00  
 2.466247e+01 2.504063e+01 0.000000e+00  
 2.457269e+01 2.512108e+01 0.000000e+00  
 2.504171e+01 2.465386e+01 0.000000e+00  
 2.504171e+01 2.452155e+01 0.000000e+00  
 2.517650e+01 2.470657e+01 0.000000e+00  
 2.521443e+01 2.460465e+01 0.000000e+00  
 2.517814e+01 2.514294e+01 0.000000e+00  
 2.532460e+01 2.496935e+01 0.000000e+00  
 2.505080e+01 2.531104e+01 0.000000e+00  
 2.533745e+01 2.477706e+01 0.000000e+00  
 2.483931e+01 2.531232e+01 0.000000e+00  
 2.528574e+01 2.517602e+01 0.000000e+00  
 2.539447e+01 2.466655e+01 0.000000e+00  
 2.539307e+01 2.487171e+01 0.000000e+00  
 2.551951e+01 2.486851e+01 0.000000e+00  
 2.536790e+01 2.508066e+01 0.000000e+00  
 2.530732e+01 2.530988e+01 0.000000e+00  
 2.459206e+01 2.533437e+01 0.000000e+00  
 2.512220e+01 2.449365e+01 0.000000e+00  
 2.532230e+01 2.457453e+01 0.000000e+00  
 2.534898e+01 2.442466e+01 0.000000e+00  
 2.447030e+01 2.508045e+01 0.000000e+00  
 2.551692e+01 2.465763e+01 0.000000e+00  
 2.550804e+01 2.510304e+01 0.000000e+00  
 2.515310e+01 2.538793e+01 0.000000e+00  
 2.544874e+01 2.535372e+01 0.000000e+00  
 2.446022e+01 2.542355e+01 0.000000e+00  
 2.474653e+01 2.540212e+01 0.000000e+00  
 2.558634e+01 2.476495e+01 0.000000e+00  
 2.575616e+01 2.475963e+01 0.000000e+00  
 2.559117e+01 2.498852e+01 0.000000e+00  
 2.576579e+01 2.491549e+01 0.000000e+00  
 2.559805e+01 2.451848e+01 0.000000e+00  
 2.556730e+01 2.524223e+01 0.000000e+00  
 2.576223e+01 2.525426e+01 0.000000e+00  
 2.549463e+01 2.551630e+01 0.000000e+00  
 2.421421e+01 2.509269e+01 0.000000e+00  
 2.511890e+01 2.422192e+01 0.000000e+00  
 2.519939e+01 2.436099e+01 0.000000e+00  
 2.550227e+01 2.437752e+01 0.000000e+00  
 2.559315e+01 2.418489e+01 0.000000e+00  
 2.434990e+01 2.517314e+01 0.000000e+00  
 2.433101e+01 2.534797e+01 0.000000e+00  
 2.414516e+01 2.540722e+01 0.000000e+00  
 2.445634e+01 2.561969e+01 0.000000e+00  
 2.407090e+01 2.523239e+01 0.000000e+00  
 2.577093e+01 2.458742e+01 0.000000e+00  
 2.568994e+01 2.556950e+01 0.000000e+00  
 2.535001e+01 2.564507e+01 0.000000e+00  
 2.479100e+01 2.556384e+01 0.000000e+00  
 2.463266e+01 2.569221e+01 0.000000e+00  
 2.427847e+01 2.573659e+01 0.000000e+00  
 2.390676e+01 2.513970e+01 0.000000e+00  
 2.511696e+01 2.389814e+01 0.000000e+00  
 2.583897e+01 2.541895e+01 0.000000e+00  
 2.608518e+01 2.547835e+01 0.000000e+00  
 2.587759e+01 2.504204e+01 0.000000e+00  
 2.409650e+01 2.559970e+01 0.000000e+00  
 2.498620e+01 2.565382e+01 0.000000e+00  
 2.514989e+01 2.556054e+01 0.000000e+00  
 2.498019e+01 2.589108e+01 0.000000e+00  
 2.474102e+01 2.590942e+01 0.000000e+00  
 2.537505e+01 2.583924e+01 0.000000e+00  
 2.575053e+01 2.578324e+01 0.000000e+00  
 2.386167e+01 2.570250e+01 0.000000e+00  
 2.547633e+01 2.403418e+01 0.000000e+00  
 2.523586e+01 2.406998e+01 0.000000e+00  
 2.556522e+01 2.377624e+01 0.000000e+00  
 2.584978e+01 2.416592e+01 0.000000e+00  
 2.532475e+01 2.369449e+01 0.000000e+00  
 2.429385e+01 2.599121e+01 0.000000e+00  
 2.558027e+01 2.592421e+01 0.000000e+00  
 2.556495e+01 2.621308e+01 0.000000e+00  
 2.516892e+01 2.599198e+01 0.000000e+00  
 2.596326e+01 2.586241e+01 0.000000e+00  
 2.527288e+01 2.625533e+01 0.000000e+00  
 2.349934e+01 2.514756e+01 0.000000e+00  
 2.520779e+01 2.348741e+01 0.000000e+00  
 2.593177e+01 2.442749e+01 0.000000e+00  
 2.599811e+01 2.393302e+01 0.000000e+00  
 2.626066e+01 2.527868e+01 0.000000e+00  
 2.614888e+01 2.570807e+01 0.000000e+00  
 2.641735e+01 2.583222e+01 0.000000e+00  
 2.405943e+01 2.614511e+01 0.000000e+00  
 2.458009e+01 2.609152e+01 0.000000e+00  
 2.367205e+01 2.556489e+01 0.000000e+00  
 2.371506e+01 2.528726e+01 0.000000e+00  
 2.335894e+01 2.568260e+01 0.000000e+00  
 2.380922e+01 2.599328e+01 0.000000e+00  
 2.605788e+01 2.613074e+01 0.000000e+00  
 2.352321e+01 2.610874e+01 0.000000e+00  
 2.325364e+01 2.540497e+01 0.000000e+00  
 2.583037e+01 2.369406e+01 0.000000e+00  
 2.631882e+01 2.392281e+01 0.000000e+00  
 2.405875e+01 2.646690e+01 0.000000e+00  
 2.582982e+01 2.634044e+01 0.000000e+00  
 2.591952e+01 2.671429e+01 0.000000e+00  
 2.612981e+01 2.500705e+01 0.000000e+00  
 2.629372e+01 2.474980e+01 0.000000e+00  
 2.654953e+01 2.532896e+01 0.000000e+00  
 2.619271e+01 2.446900e+01 0.000000e+00  
 2.643142e+01 2.419721e+01 0.000000e+00  
 2.668417e+01 2.471662e+01 0.000000e+00  
 2.635971e+01 2.611895e+01 0.000000e+00  
 2.595571e+01 2.336050e+01 0.000000e+00  
 2.520779e+01 2.315200e+01 0.000000e+00  
 2.299239e+01 2.525741e+01 0.000000e+00  
 2.676881e+01 2.435448e+01 0.000000e+00  
 2.664253e+01 2.565278e+01 0.000000e+00  
 2.704668e+01 2.572311e+01 0.000000e+00  
 2.651303e+01 2.360898e+01 0.000000e+00  
 2.373414e+01 2.665928e+01 0.000000e+00  
 2.439077e+01 2.662850e+01 0.000000e+00  
 2.326255e+01 2.593566e+01 0.000000e+00  
 2.284400e+01 2.607376e+01 0.000000e+00  
 2.344881e+01 2.645294e+01 0.000000e+00  
 2.680913e+01 2.502416e+01 0.000000e+00  
 2.719006e+01 2.527576e+01 0.000000e+00  
 2.297230e+01 2.643819e+01 0.000000e+00  
 2.557361e+01 2.304850e+01 0.000000e+00  
 2.631766e+01 2.328564e+01 0.000000e+00  
 2.645036e+01 2.286734e+01 0.000000e+00  
 2.637157e+01 2.682118e+01 0.000000e+00  
 2.560677e+01 2.698149e+01 0.000000e+00  
 2.693652e+01 2.359651e+01 0.000000e+00  
 2.442980e+01 2.703837e+01 0.000000e+00  
 2.373324e+01 2.708300e+01 0.000000e+00  
 2.467769e+01 2.640701e+01 0.000000e+00  
 2.506298e+01 2.649916e+01 0.000000e+00  
 2.244315e+01 2.567315e+01 0.000000e+00  
 2.256930e+01 2.525741e+01 0.000000e+00  
 2.523480e+01 2.236161e+01 0.000000e+00  
 2.558292e+01 2.198388e+01 0.000000e+00  
 2.560061e+01 2.268119e+01 0.000000e+00  
 2.611542e+01 2.257490e+01 0.000000e+00  
 2.704549e+01 2.621913e+01 0.000000e+00  
 2.658370e+01 2.643554e+01 0.000000e+00  
 2.719219e+01 2.318294e+01 0.000000e+00  
 2.707970e+01 2.406761e+01 0.000000e+00  
 2.482400e+01 2.717424e+01 0.000000e+00  
 2.517027e+01 2.685651e+01 0.000000e+00  
 2.409689e+01 2.730049e+01 0.000000e+00  
 2.418718e+01 2.784256e+01 0.000000e+00  
 2.329193e+01 2.730719e+01 0.000000e+00  
 2.655625e+01 2.729073e+01 0.000000e+00  
 2.560207e+01 2.748638e+01 0.000000e+00  
 2.506484e+01 2.760864e+01 0.000000e+00  
 2.690140e+01 2.277712e+01 0.000000e+00  
 2.708522e+01 2.220922e+01 0.000000e+00  
 2.156120e+01 2.529611e+01 0.000000e+00  
 2.534812e+01 2.156827e+01 0.000000e+00  
 2.576366e+01 2.093903e+01 0.000000e+00  
 2.609773e+01 2.211358e+01 0.000000e+00  
 2.774988e+01 2.316657e+01 0.000000e+00  
 2.327763e+01 2.780607e+01 0.000000e+00  
 2.281632e+01 2.686872e+01 0.000000e+00  
 2.715081e+01 2.731560e+01 0.000000e+00  
 2.609950e+01 2.768872e+01 0.000000e+00  
 2.196865e+01 2.571185e+01 0.000000e+00  
 2.181987e+01 2.637263e+01 0.000000e+00  
 2.108197e+01 2.566444e+01 0.000000e+00  
 2.380925e+01 2.812394e+01 0.000000e+00  
 2.376527e+01 2.883336e+01 0.000000e+00  
 2.476093e+01 2.801484e+01 0.000000e+00  
 2.616355e+01 2.835655e+01 0.000000e+00  
 2.803781e+01 2.266435e+01 0.000000e+00  
 2.800918e+01 2.376595e+01 0.000000e+00  
 2.274242e+01 2.815743e+01 0.000000e+00  
 2.541554e+01 2.040786e+01 0.000000e+00  
 2.541554e+01 1.955941e+01 0.000000e+00  
 2.651721e+01 2.107918e+01 0.000000e+00  
 2.661648e+01 2.183811e+01 0.000000e+00  
 2.742792e+01 2.662964e+01 0.000000e+00  
 2.740889e+01 2.793109e+01 0.000000e+00  
 2.055788e+01 2.536832e+01 0.000000e+00  
 1.987025e+01 2.570591e+01 0.000000e+00  
 2.123081e+01 2.632522e+01 0.000000e+00  
 2.764653e+01 2.497458e+01 0.000000e+00  
 2.759467e+01 2.425343e+01 0.000000e+00  
 2.766393e+01 2.211282e+01 0.000000e+00  
 2.806564e+01 2.137619e+01 0.000000e+00  
 2.874235e+01 2.255110e+01 0.000000e+00  
 2.873997e+01 2.384137e+01 0.000000e+00  
 2.303903e+01 2.888990e+01 0.000000e+00  
 2.215395e+01 2.769749e+01 0.000000e+00  
 2.221355e+01 2.690767e+01 0.000000e+00  
 2.687838e+01 2.857405e+01 0.000000e+00  
 2.703670e+01 2.934081e+01 0.000000e+00  
 2.560273e+01 2.885226e+01 0.000000e+00  
 2.828365e+01 2.800234e+01 0.000000e+00  
 2.434256e+01 2.915352e+01 0.000000e+00  
 2.496029e+01 2.861638e+01 0.000000e+00  
 2.471542e+01 2.994548e+01 0.000000e+00  
 1.920340e+01 2.533758e+01 0.000000e+00  
 1.813374e+01 2.533758e+01 0.000000e+00  
 1.992118e+01 2.662138e+01 0.000000e+00  
 2.883348e+01 2.164977e+01 0.000000e+00  
 2.918522e+01 2.312874e+01 0.000000e+00  
 3.018473e+01 2.309408e+01 0.000000e+00  
 2.902961e+01 2.474108e+01 0.000000e+00  
 2.559286e+01 2.976675e+01 0.000000e+00  
 2.882416e+01 2.705466e+01 0.000000e+00  
 2.859841e+01 2.889780e+01 0.000000e+00  
 2.738766e+01 2.071365e+01 0.000000e+00  
 2.835069e+01 2.538681e+01 0.000000e+00  
 2.822651e+01 2.629746e+01 0.000000e+00  
 2.999369e+01 2.486611e+01 0.000000e+00  
 2.075765e+01 2.694457e+01 0.000000e+00  
 2.788196e+01 2.959331e+01 0.000000e+00  
 2.791084e+01 3.073542e+01 0.000000e+00  
 2.631201e+01 3.003780e+01 0.000000e+00  
 2.128711e+01 2.778181e+01 0.000000e+00  
 1.905932e+01 2.710575e+01 0.000000e+00  
 2.958997e+01 2.908493e+01 0.000000e+00  
[...]
 POINT_DATA 790 
 VECTORS Displacement float 
 3.512553e-06 -2.292873e-06 0.000000e+00  
 3.606874e-06 -2.283926e-06 0.000000e+00  
 3.515885e-06 -2.283553e-06 0.000000e+00  
 3.560107e-06 -2.270376e-06 0.000000e+00  
 3.480816e-06 -2.293636e-06 0.000000e+00  
 3.662236e-06 -2.271772e-06 0.000000e+00  
 3.465201e-06 -2.288614e-06 0.000000e+00  
 3.435833e-06 -2.295113e-06 0.000000e+00  
 3.711727e-06 -2.299212e-06 0.000000e+00  
 3.764248e-06 -2.284000e-06 0.000000e+00  
 3.488442e-06 -2.282477e-06 0.000000e+00  
 3.458601e-06 -2.297677e-06 0.000000e+00  
 3.670558e-06 -2.235475e-06 0.000000e+00  
 3.621038e-06 -2.220464e-06 0.000000e+00  
 3.729465e-06 -2.219259e-06 0.000000e+00  
 3.486668e-06 -2.262496e-06 0.000000e+00  
 3.461448e-06 -2.291949e-06 0.000000e+00  
 3.428157e-06 -2.291929e-06 0.000000e+00  
 3.426435e-06 -2.304355e-06 0.000000e+00  
 3.565024e-06 -2.243155e-06 0.000000e+00  
 3.416444e-06 -2.304717e-06 0.000000e+00  
 3.382013e-06 -2.315791e-06 0.000000e+00  
 3.418940e-06 -2.294966e-06 0.000000e+00  
 3.385833e-06 -2.309841e-06 0.000000e+00  
 3.806846e-06 -2.308700e-06 0.000000e+00  
 3.875101e-06 -2.310020e-06 0.000000e+00  
 3.776374e-06 -2.243073e-06 0.000000e+00  
 3.832042e-06 -2.231746e-06 0.000000e+00  
 3.523803e-06 -2.238805e-06 0.000000e+00  
 3.633886e-06 -2.188230e-06 0.000000e+00  
 3.442404e-06 -2.273151e-06 0.000000e+00  
 3.741054e-06 -2.182163e-06 0.000000e+00  
 3.407419e-06 -2.304578e-06 0.000000e+00  
 3.530528e-06 -2.209370e-06 0.000000e+00  
 3.803086e-06 -2.164820e-06 0.000000e+00  
 3.694289e-06 -2.165386e-06 0.000000e+00  
 3.709188e-06 -2.129828e-06 0.000000e+00  
 3.586594e-06 -2.180787e-06 0.000000e+00  
 3.485613e-06 -2.209594e-06 0.000000e+00  
 3.352067e-06 -2.327074e-06 0.000000e+00  
 3.888579e-06 -2.273281e-06 0.000000e+00  
 3.848708e-06 -2.191401e-06 0.000000e+00  
 3.921731e-06 -2.184379e-06 0.000000e+00  
 3.366694e-06 -2.314353e-06 0.000000e+00  
 3.813719e-06 -2.127335e-06 0.000000e+00  
 3.599251e-06 -2.143748e-06 0.000000e+00  
 3.435078e-06 -2.250926e-06 0.000000e+00  
 3.494031e-06 -2.174139e-06 0.000000e+00  
 3.307673e-06 -2.344361e-06 0.000000e+00  
 3.366806e-06 -2.317136e-06 0.000000e+00  
 3.766054e-06 -2.108799e-06 0.000000e+00  
 3.783181e-06 -2.063026e-06 0.000000e+00  
 3.662048e-06 -2.115168e-06 0.000000e+00  
 3.715027e-06 -2.066919e-06 0.000000e+00  
 3.883690e-06 -2.102625e-06 0.000000e+00  
 3.553617e-06 -2.136355e-06 0.000000e+00  
 3.578968e-06 -2.087563e-06 0.000000e+00  
 3.449701e-06 -2.170587e-06 0.000000e+00  
 3.308857e-06 -2.339866e-06 0.000000e+00  
 4.011748e-06 -2.273369e-06 0.000000e+00  
 3.951162e-06 -2.242292e-06 0.000000e+00  
 3.945675e-06 -2.132877e-06 0.000000e+00  
 4.031214e-06 -2.104042e-06 0.000000e+00  
 3.327131e-06 -2.334069e-06 0.000000e+00  
 3.295998e-06 -2.350301e-06 0.000000e+00  
 3.249562e-06 -2.372988e-06 0.000000e+00  
 3.266194e-06 -2.355569e-06 0.000000e+00  
 3.261381e-06 -2.366065e-06 0.000000e+00  
 3.861736e-06 -2.055218e-06 0.000000e+00  
 3.462665e-06 -2.125054e-06 0.000000e+00  
 3.391043e-06 -2.210700e-06 0.000000e+00  
 3.333331e-06 -2.315955e-06 0.000000e+00  
 3.278647e-06 -2.338913e-06 0.000000e+00  
 3.212443e-06 -2.380562e-06 0.000000e+00  
 3.241816e-06 -2.375856e-06 0.000000e+00  
 4.141985e-06 -2.266538e-06 0.000000e+00  
 3.532910e-06 -2.079583e-06 0.000000e+00  
 3.548121e-06 -2.024927e-06 0.000000e+00  
 3.676444e-06 -2.046190e-06 0.000000e+00  
 3.207189e-06 -2.391286e-06 0.000000e+00  
 3.338985e-06 -2.286898e-06 0.000000e+00  
 3.386162e-06 -2.254290e-06 0.000000e+00  
 3.279170e-06 -2.291611e-06 0.000000e+00  
 3.243784e-06 -2.329844e-06 0.000000e+00  
 3.343051e-06 -2.211091e-06 0.000000e+00  
 3.409281e-06 -2.122191e-06 0.000000e+00  
 3.149010e-06 -2.422235e-06 0.000000e+00  
 4.092097e-06 -2.141665e-06 0.000000e+00  
 4.075308e-06 -2.226700e-06 0.000000e+00  
 4.193269e-06 -2.110114e-06 0.000000e+00  
 4.045028e-06 -2.028879e-06 0.000000e+00  
 4.221181e-06 -2.187672e-06 0.000000e+00  
 3.162868e-06 -2.390223e-06 0.000000e+00  
 3.348203e-06 -2.168006e-06 0.000000e+00  
 3.274533e-06 -2.182441e-06 0.000000e+00  
 3.278221e-06 -2.257841e-06 0.000000e+00  
 3.416478e-06 -2.077291e-06 0.000000e+00  
 3.229304e-06 -2.244097e-06 0.000000e+00  
 3.165900e-06 -2.420893e-06 0.000000e+00  
 4.293698e-06 -2.220718e-06 0.000000e+00  
 3.939643e-06 -2.009951e-06 0.000000e+00  
 4.141227e-06 -1.985404e-06 0.000000e+00  
 3.638231e-06 -1.971492e-06 0.000000e+00  
 3.486104e-06 -2.025436e-06 0.000000e+00  
 3.485189e-06 -1.973355e-06 0.000000e+00  
 3.098223e-06 -2.424357e-06 0.000000e+00  
 3.181320e-06 -2.357248e-06 0.000000e+00  
 3.138834e-06 -2.432839e-06 0.000000e+00  
 3.186500e-06 -2.408127e-06 0.000000e+00  
 3.068558e-06 -2.474667e-06 0.000000e+00  
 3.089177e-06 -2.444831e-06 0.000000e+00  
 3.357447e-06 -2.070803e-06 0.000000e+00  
 3.025457e-06 -2.482691e-06 0.000000e+00  
 3.090148e-06 -2.466539e-06 0.000000e+00  
 4.227918e-06 -2.029264e-06 0.000000e+00  
 4.155468e-06 -1.902859e-06 0.000000e+00  
 3.035515e-06 -2.437258e-06 0.000000e+00  
 3.276508e-06 -2.131002e-06 0.000000e+00  
 3.200741e-06 -2.128477e-06 0.000000e+00  
 3.720368e-06 -1.984410e-06 0.000000e+00  
 3.836048e-06 -1.933945e-06 0.000000e+00  
 3.657159e-06 -1.911212e-06 0.000000e+00  
 3.938140e-06 -1.946683e-06 0.000000e+00  
 4.057318e-06 -1.882320e-06 0.000000e+00  
 3.883193e-06 -1.846698e-06 0.000000e+00  
 3.399232e-06 -2.004185e-06 0.000000e+00  
 4.349131e-06 -1.987858e-06 0.000000e+00  
 4.407611e-06 -2.205970e-06 0.000000e+00  
 3.065542e-06 -2.484592e-06 0.000000e+00  
 4.020478e-06 -1.812743e-06 0.000000e+00  
 3.566616e-06 -1.912735e-06 0.000000e+00  
 3.593787e-06 -1.833339e-06 0.000000e+00  
 4.274872e-06 -1.849054e-06 0.000000e+00  
 2.956921e-06 -2.484657e-06 0.000000e+00  
 3.045269e-06 -2.398499e-06 0.000000e+00  
 3.013878e-06 -2.501051e-06 0.000000e+00  
 2.929421e-06 -2.554799e-06 0.000000e+00  
 2.955559e-06 -2.508467e-06 0.000000e+00  
 3.787394e-06 -1.837573e-06 0.000000e+00  
 3.745933e-06 -1.774628e-06 0.000000e+00  
 2.891161e-06 -2.561941e-06 0.000000e+00  
 4.448780e-06 -2.089659e-06 0.000000e+00  
 4.381866e-06 -1.890263e-06 0.000000e+00  
 4.522572e-06 -1.847062e-06 0.000000e+00  
 3.228848e-06 -2.040633e-06 0.000000e+00  
 3.107495e-06 -2.200859e-06 0.000000e+00  
 4.294531e-06 -1.752458e-06 0.000000e+00  
 2.968449e-06 -2.404249e-06 0.000000e+00  
 2.880044e-06 -2.500663e-06 0.000000e+00  
 3.125319e-06 -2.350839e-06 0.000000e+00  
 3.150482e-06 -2.289282e-06 0.000000e+00  
 2.925019e-06 -2.573491e-06 0.000000e+00  
 2.997474e-06 -2.532306e-06 0.000000e+00  
 4.656128e-06 -2.157506e-06 0.000000e+00  
 4.773900e-06 -2.041359e-06 0.000000e+00  
 4.566008e-06 -2.067992e-06 0.000000e+00  
 4.608487e-06 -1.923598e-06 0.000000e+00  
 3.456367e-06 -1.866800e-06 0.000000e+00  
 3.345888e-06 -1.974829e-06 0.000000e+00  
 4.440410e-06 -1.685606e-06 0.000000e+00  
 4.139596e-06 -1.736726e-06 0.000000e+00  
 2.984504e-06 -2.346135e-06 0.000000e+00  
 3.086155e-06 -2.278803e-06 0.000000e+00  
 2.881723e-06 -2.459167e-06 0.000000e+00  
 2.792354e-06 -2.461712e-06 0.000000e+00  
 2.788400e-06 -2.563959e-06 0.000000e+00  
 3.145153e-06 -2.026561e-06 0.000000e+00  
 3.003285e-06 -2.218581e-06 0.000000e+00  
 2.924801e-06 -2.317524e-06 0.000000e+00  
 4.561468e-06 -1.738526e-06 0.000000e+00  
 4.738410e-06 -1.680880e-06 0.000000e+00  
 2.837989e-06 -2.646580e-06 0.000000e+00  
 4.884225e-06 -2.080654e-06 0.000000e+00  
 5.062916e-06 -1.938644e-06 0.000000e+00  
 4.746565e-06 -1.911804e-06 0.000000e+00  
 4.466619e-06 -1.571475e-06 0.000000e+00  
 2.702276e-06 -2.583564e-06 0.000000e+00  
 2.801760e-06 -2.600696e-06 0.000000e+00  
 3.204424e-06 -1.911065e-06 0.000000e+00  
 3.014043e-06 -2.132807e-06 0.000000e+00  
 2.847975e-06 -2.628461e-06 0.000000e+00  
 2.739547e-06 -2.683939e-06 0.000000e+00  
 2.724328e-06 -2.720961e-06 0.000000e+00  
 2.704384e-06 -2.523021e-06 0.000000e+00  
 2.580754e-06 -2.549602e-06 0.000000e+00  
 2.818579e-06 -2.378833e-06 0.000000e+00  
 2.890663e-06 -2.146548e-06 0.000000e+00  
 4.630125e-06 -1.499767e-06 0.000000e+00  
 4.291446e-06 -1.543405e-06 0.000000e+00  
 2.586820e-06 -2.662300e-06 0.000000e+00  
 5.187191e-06 -1.990583e-06 0.000000e+00  
 5.390417e-06 -1.933369e-06 0.000000e+00  
 5.043209e-06 -1.766828e-06 0.000000e+00  
 4.836795e-06 -1.775406e-06 0.000000e+00  
 3.395977e-06 -1.815300e-06 0.000000e+00  
 3.099876e-06 -1.894216e-06 0.000000e+00  
 2.683099e-06 -2.758208e-06 0.000000e+00  
 2.549366e-06 -2.849913e-06 0.000000e+00  
 2.664198e-06 -2.744561e-06 0.000000e+00  
 3.883855e-06 -1.668786e-06 0.000000e+00  
 4.110453e-06 -1.641818e-06 0.000000e+00  
 4.780618e-06 -1.556359e-06 0.000000e+00  
 4.997887e-06 -1.451815e-06 0.000000e+00  
 4.690037e-06 -1.366771e-06 0.000000e+00  
 4.310909e-06 -1.415773e-06 0.000000e+00  
 2.501070e-06 -2.649297e-06 0.000000e+00  
 2.591353e-06 -2.712823e-06 0.000000e+00  
 2.716680e-06 -2.669949e-06 0.000000e+00  
 2.918406e-06 -2.024093e-06 0.000000e+00  
 2.790467e-06 -2.027513e-06 0.000000e+00  
 2.747152e-06 -2.262490e-06 0.000000e+00  
 3.172720e-06 -1.735167e-06 0.000000e+00  
 2.580647e-06 -2.474126e-06 0.000000e+00  
 2.729401e-06 -2.363061e-06 0.000000e+00  
 2.484097e-06 -2.438716e-06 0.000000e+00  
 2.496127e-06 -2.894415e-06 0.000000e+00  
 2.350629e-06 -2.999246e-06 0.000000e+00  
 2.452897e-06 -2.896566e-06 0.000000e+00  
 4.944147e-06 -1.320681e-06 0.000000e+00  
 4.543211e-06 -1.311498e-06 0.000000e+00  
 4.602535e-06 -1.148772e-06 0.000000e+00  
 4.069037e-06 -1.408970e-06 0.000000e+00  
 2.587868e-06 -2.292698e-06 0.000000e+00  
 3.441220e-06 -1.582231e-06 0.000000e+00  
 3.019722e-06 -1.725743e-06 0.000000e+00  
 5.158558e-06 -1.564614e-06 0.000000e+00  
 3.826450e-06 -1.563027e-06 0.000000e+00  
 3.565743e-06 -1.642663e-06 0.000000e+00  
 4.107116e-06 -1.258385e-06 0.000000e+00  
 2.522404e-06 -2.828181e-06 0.000000e+00  
 2.820314e-06 -1.887194e-06 0.000000e+00  
 2.618900e-06 -1.929728e-06 0.000000e+00  
 2.603489e-06 -2.180158e-06 0.000000e+00  
 2.476316e-06 -2.813770e-06 0.000000e+00  
 2.287249e-06 -3.008903e-06 0.000000e+00  
 3.072952e-06 -1.561020e-06 0.000000e+00  
 4.860004e-06 -1.036639e-06 0.000000e+00  
 4.405349e-06 -1.103228e-06 0.000000e+00  
 4.428573e-06 -9.307719e-07 0.000000e+00  
 2.304917e-06 -2.562303e-06 0.000000e+00  
 5.811461e-06 -1.756745e-06 0.000000e+00  
 3.876974e-06 -1.186161e-06 0.000000e+00  
 2.157619e-06 -3.064757e-06 0.000000e+00  
 2.240829e-06 -3.065769e-06 0.000000e+00  
 3.355093e-06 -1.330554e-06 0.000000e+00  
 3.569380e-06 -1.340383e-06 0.000000e+00  
 2.879157e-06 -1.561176e-06 0.000000e+00  
 5.585454e-06 -1.750242e-06 0.000000e+00  
 6.044499e-06 -1.563319e-06 0.000000e+00  
 2.362479e-06 -2.717872e-06 0.000000e+00  
 2.279469e-06 -2.829602e-06 0.000000e+00  
 2.236994e-06 -2.708899e-06 0.000000e+00  
 2.062938e-06 -2.851811e-06 0.000000e+00  
 2.330338e-06 -2.876010e-06 0.000000e+00  
 2.096023e-06 -2.917934e-06 0.000000e+00  
 1.906634e-06 -2.875815e-06 0.000000e+00  
 4.930533e-06 -8.490713e-07 0.000000e+00  
 5.053629e-06 -1.149213e-06 0.000000e+00  
 2.143136e-06 -2.546014e-06 0.000000e+00  
 2.476905e-06 -2.132831e-06 0.000000e+00  
 2.234837e-06 -2.308987e-06 0.000000e+00  
 2.625678e-06 -1.768742e-06 0.000000e+00  
 2.421775e-06 -1.736839e-06 0.000000e+00  
 4.098890e-06 -9.594279e-07 0.000000e+00  
 2.183394e-06 -2.996828e-06 0.000000e+00  
 2.039033e-06 -3.025162e-06 0.000000e+00  
 1.955996e-06 -3.206158e-06 0.000000e+00  
 2.937472e-06 -1.351831e-06 0.000000e+00  
 1.984875e-06 -3.242652e-06 0.000000e+00  
 6.219676e-06 -1.583952e-06 0.000000e+00  
 6.481053e-06 -1.360879e-06 0.000000e+00  
 6.097629e-06 -1.319963e-06 0.000000e+00  
 4.697559e-06 -7.891104e-07 0.000000e+00  
 4.772826e-06 -5.811005e-07 0.000000e+00  
 1.920579e-06 -2.718421e-06 0.000000e+00  
 1.739443e-06 -2.702863e-06 0.000000e+00  
 1.706695e-06 -3.035810e-06 0.000000e+00  
 5.255277e-06 -7.249728e-07 0.000000e+00  
 1.901984e-06 -3.273997e-06 0.000000e+00  
 2.055983e-06 -3.190952e-06 0.000000e+00  
 1.794625e-06 -3.267599e-06 0.000000e+00  
 2.482740e-06 -1.417820e-06 0.000000e+00  
 3.264148e-06 -1.190980e-06 0.000000e+00  
 1.754089e-06 -3.389076e-06 0.000000e+00  
 1.684691e-06 -3.422756e-06 0.000000e+00  
 6.352927e-06 -1.114623e-06 0.000000e+00  
 5.761888e-06 -1.304063e-06 0.000000e+00  
 5.471069e-06 -1.539890e-06 0.000000e+00  
 5.363308e-06 -1.035921e-06 0.000000e+00  
 2.181765e-06 -1.934921e-06 0.000000e+00  
 1.671587e-06 -3.185133e-06 0.000000e+00  
 1.848739e-06 -3.155472e-06 0.000000e+00  
 1.516647e-06 -3.046336e-06 0.000000e+00  
 5.492054e-06 -8.024339e-07 0.000000e+00  
 5.353584e-06 -5.167704e-07 0.000000e+00  
 6.558154e-06 -1.135882e-06 0.000000e+00  
 6.820052e-06 -9.304214e-07 0.000000e+00  
 6.652374e-06 -1.341705e-06 0.000000e+00  
 6.901414e-06 -1.108132e-06 0.000000e+00  
 5.104260e-06 -4.312511e-07 0.000000e+00  
 5.196529e-06 -2.152080e-07 0.000000e+00  
 4.508262e-06 -5.218412e-07 0.000000e+00  
 5.881868e-06 -7.149714e-07 0.000000e+00  
 5.708487e-06 -1.088202e-06 0.000000e+00  
 6.048435e-06 -8.704844e-07 0.000000e+00  
 7.036440e-06 -1.065448e-06 0.000000e+00  
 7.215645e-06 -8.645386e-07 0.000000e+00  
 6.989461e-06 -9.197148e-07 0.000000e+00  
 7.204566e-06 -7.286870e-07 0.000000e+00  
 1.574564e-06 -3.424373e-06 0.000000e+00  
 1.533865e-06 -2.870577e-06 0.000000e+00  
 1.342079e-06 -2.863928e-06 0.000000e+00  
 1.815633e-06 -2.461768e-06 0.000000e+00  
 2.089956e-06 -2.238949e-06 0.000000e+00  
 1.642894e-06 -3.444309e-06 0.000000e+00  
 1.399672e-06 -3.585498e-06 0.000000e+00  
 7.296872e-06 -7.122107e-07 0.000000e+00  
 7.455092e-06 -5.531027e-07 0.000000e+00  
 7.264111e-06 -5.812941e-07 0.000000e+00  
 7.527492e-06 -4.792732e-07 0.000000e+00  
 7.530652e-06 -4.264196e-07 0.000000e+00  
 6.879644e-06 -7.426569e-07 0.000000e+00  
 7.312410e-06 -7.947951e-07 0.000000e+00  
 7.456572e-06 -5.918658e-07 0.000000e+00  
 1.606171e-06 -3.483583e-06 0.000000e+00  
 1.372259e-06 -3.630126e-06 0.000000e+00  
 1.244394e-06 -3.712321e-06 0.000000e+00  
 1.275892e-06 -3.676176e-06 0.000000e+00  
 1.074101e-06 -3.782755e-06 0.000000e+00  
 9.756440e-07 -3.862933e-06 0.000000e+00  
 1.068206e-06 -3.743802e-06 0.000000e+00  
 4.865738e-06 -1.323415e-07 0.000000e+00  
 5.532211e-06 -1.023466e-07 0.000000e+00  
 1.277107e-06 -3.623769e-06 0.000000e+00  
 9.358037e-07 -3.765030e-06 0.000000e+00  
 1.519713e-06 -3.510148e-06 0.000000e+00  
 1.453789e-06 -3.354201e-06 0.000000e+00  
 6.353951e-06 -8.838745e-07 0.000000e+00  
 1.226423e-07 -3.916446e-06 0.000000e+00  
 7.644276e-06 -1.046552e-07 0.000000e+00  
 5.429104e-07 -3.865490e-06 0.000000e+00  
 1.355235e-06 -2.654525e-06 0.000000e+00  
 1.149948e-06 -3.046809e-06 0.000000e+00  
 1.968871e-06 -1.897236e-06 0.000000e+00  
 7.660166e-06 6.572513e-07 0.000000e+00  
 6.527490e-06 1.276308e-06 0.000000e+00  
 6.012005e-06 1.412155e-06 0.000000e+00  
 3.152397e-06 1.532124e-06 0.000000e+00  
 2.611419e-06 1.487838e-06 0.000000e+00  
 1.577253e-06 1.392058e-06 0.000000e+00  
 4.774764e-07 1.282750e-06 0.000000e+00  
 2.716945e-07 1.713292e-07 0.000000e+00  
 6.110296e-08 -1.342582e-06 0.000000e+00  
 1.016654e-08 -1.823521e-06 0.000000e+00  
 -6.876519e-08 -3.753220e-06 0.000000e+00  
 -6.022538e-08 -4.004274e-06 0.000000e+00  
 -3.549711e-08 -4.354444e-06 0.000000e+00  
 -2.139147e-08 -4.453471e-06 0.000000e+00  
 5.454839e-06 1.506368e-06 0.000000e+00  
 4.875050e-06 1.559865e-06 0.000000e+00  
 4.289907e-06 1.576842e-06 0.000000e+00  
 3.712878e-06 1.564735e-06 0.000000e+00  
 -2.845344e-08 -2.282414e-06 0.000000e+00  
 -5.435064e-08 -2.711620e-06 0.000000e+00  
 -6.832583e-08 -3.103660e-06 0.000000e+00  
 -7.228667e-08 -3.452272e-06 0.000000e+00  
 -4.866739e-08 -4.204664e-06 0.000000e+00  
 -4.755233e-09 -4.508789e-06 0.000000e+00  
 7.975177e-06 9.019113e-08 0.000000e+00  
 7.859976e-06 4.019322e-07 0.000000e+00  
 7.364874e-06 8.928724e-07 0.000000e+00  
 6.983453e-06 1.101484e-06 0.000000e+00  
 2.088104e-06 1.439359e-06 0.000000e+00  
 1.071791e-06 1.348566e-06 0.000000e+00  
 3.504625e-07 6.623099e-07 0.000000e+00  
 1.936551e-07 -3.403721e-07 0.000000e+00  
 1.229246e-07 -8.464070e-07 0.000000e+00  
 1.313766e-06 -3.222601e-06 0.000000e+00  
 5.709787e-06 -3.901193e-07 0.000000e+00  
 4.507569e-06 -2.925638e-07 0.000000e+00  
 4.107575e-06 -7.570843e-07 0.000000e+00  
 6.000140e-06 -5.129480e-07 0.000000e+00  
 1.411097e-06 -3.478918e-06 0.000000e+00  
 1.313026e-06 -3.652847e-06 0.000000e+00  
 1.169466e-06 -3.721778e-06 0.000000e+00  
 1.213165e-06 -3.635625e-06 0.000000e+00  
 9.896789e-07 -3.853175e-06 0.000000e+00  
 1.048376e-06 -3.836380e-06 0.000000e+00  
 9.352273e-07 -3.906791e-06 0.000000e+00  
 7.624700e-07 -4.017986e-06 0.000000e+00  
 6.965936e-07 -4.044817e-06 0.000000e+00  
 6.635223e-07 -4.080384e-06 0.000000e+00  
 7.433749e-06 -4.357094e-07 0.000000e+00  
 7.468207e-06 -3.217642e-07 0.000000e+00  
 7.616093e-06 -2.190590e-07 0.000000e+00  
 7.322849e-06 -3.153703e-07 0.000000e+00  
 7.108669e-06 -5.825686e-07 0.000000e+00  
 7.132366e-06 -4.332458e-07 0.000000e+00  
 6.928436e-06 -3.916773e-07 0.000000e+00  
 6.650266e-06 -5.144066e-07 0.000000e+00  
 6.624082e-06 -7.146079e-07 0.000000e+00  
 6.354795e-06 -4.170965e-07 0.000000e+00  
 6.934211e-06 -2.424165e-07 0.000000e+00  
 7.964902e-07 -3.960455e-06 0.000000e+00  
 6.699516e-07 -3.970334e-06 0.000000e+00  
 7.151345e-07 -3.874709e-06 0.000000e+00  
 7.663513e-06 -2.918647e-07 0.000000e+00  
 4.897075e-06 1.271085e-07 0.000000e+00  
 5.641425e-06 1.236438e-07 0.000000e+00  
 5.795501e-06 -1.949663e-07 0.000000e+00  
 6.188410e-06 -9.241023e-08 0.000000e+00  
 6.457219e-06 -1.954796e-07 0.000000e+00  
 6.296359e-06 1.114890e-07 0.000000e+00  
 1.287504e-06 -3.380305e-06 0.000000e+00  
 5.336909e-07 -4.128795e-06 0.000000e+00  
 7.106647e-07 -4.029616e-06 0.000000e+00  
 5.181755e-07 -4.173766e-06 0.000000e+00  
 2.876336e-07 -3.956376e-06 0.000000e+00  
 1.140606e-06 -3.230124e-06 0.000000e+00  
 9.681057e-07 -3.406537e-06 0.000000e+00  
 1.621801e-06 -2.420239e-06 0.000000e+00  
 1.164611e-06 -2.625238e-06 0.000000e+00  
 9.675312e-07 -3.041478e-06 0.000000e+00  
 1.683825e-06 -2.156547e-06 0.000000e+00  
 1.963062e-06 -1.610589e-06 0.000000e+00  
 1.297438e-06 1.219124e-06 0.000000e+00  
 1.243944e-06 9.159843e-07 0.000000e+00  
 2.320393e-06 1.309860e-06 0.000000e+00  
 2.264751e-06 1.003042e-06 0.000000e+00  
 1.974309e-06 8.294124e-07 0.000000e+00  
 7.781928e-06 4.788028e-07 0.000000e+00  
 7.792354e-06 3.811029e-07 0.000000e+00  
 4.833400e-08 -2.910137e-06 0.000000e+00  
 2.653168e-07 -2.901622e-06 0.000000e+00  
 4.007726e-07 -2.688987e-06 0.000000e+00  
 7.530375e-06 7.004194e-07 0.000000e+00  
 7.537304e-06 5.564074e-07 0.000000e+00  
 6.270801e-06 1.213871e-06 0.000000e+00  
 6.256079e-06 9.623815e-07 0.000000e+00  
 6.763242e-06 1.073951e-06 0.000000e+00  
 6.757155e-06 8.524845e-07 0.000000e+00  
 5.727184e-06 1.317193e-06 0.000000e+00  
 5.702642e-06 1.042445e-06 0.000000e+00  
 2.852618e-06 1.354513e-06 0.000000e+00  
 2.797520e-06 1.045631e-06 0.000000e+00  
 3.404797e-06 1.391649e-06 0.000000e+00  
 3.351919e-06 1.081973e-06 0.000000e+00  
 3.801273e-07 -7.499488e-08 0.000000e+00  
 6.737655e-07 -5.400483e-08 0.000000e+00  
 4.573386e-07 4.162605e-07 0.000000e+00  
 7.993522e-07 4.807811e-07 0.000000e+00  
 1.711830e-07 -1.578460e-06 0.000000e+00  
 4.399565e-07 -1.562102e-06 0.000000e+00  
 2.329755e-07 -1.087889e-06 0.000000e+00  
 5.130909e-07 -1.069407e-06 0.000000e+00  
 1.193707e-07 -2.050729e-06 0.000000e+00  
 3.738352e-07 -2.036945e-06 0.000000e+00  
 5.347550e-07 -1.793167e-06 0.000000e+00  
 7.888575e-07 -1.771872e-06 0.000000e+00  
 7.435728e-09 -3.885092e-06 0.000000e+00  
 1.504522e-07 -3.880799e-06 0.000000e+00  
 1.490163e-08 -3.608336e-06 0.000000e+00  
 1.844579e-07 -3.603224e-06 0.000000e+00  
 3.453909e-09 -4.111195e-06 0.000000e+00  