# vtk DataFile Version 1.0 
PolyMesh 
ASCII 
 
DATASET POLYDATA 
 
POINTS 36 float 
0.000000e+00 0.000000e+00 0.000000e+00  
 2.000000e-01 0.000000e+00 0.000000e+00  
 4.000000e-01 0.000000e+00 0.000000e+00  
 6.000000e-01 0.000000e+00 0.000000e+00  
 8.000000e-01 0.000000e+00 0.000000e+00  
 1.000000e+00 0.000000e+00 0.000000e+00  
 0.000000e+00 2.000000e-01 0.000000e+00  
 2.000000e-01 2.000000e-01 0.000000e+00  
 4.000000e-01 2.000000e-01 0.000000e+00  
 6.000000e-01 2.000000e-01 0.000000e+00  
 8.000000e-01 2.000000e-01 0.000000e+00  
 1.000000e+00 2.000000e-01 0.000000e+00  
 0.000000e+00 4.000000e-01 0.000000e+00  
 2.000000e-01 4.000000e-01 0.000000e+00  
 4.000000e-01 4.000000e-01 0.000000e+00  
 6.000000e-01 4.000000e-01 0.000000e+00  
 8.000000e-01 4.000000e-01 0.000000e+00  
 1.000000e+00 4.000000e-01 0.000000e+00  
 0.000000e+00 6.000000e-01 0.000000e+00  
 2.000000e-01 6.000000e-01 0.000000e+00  
 4.000000e-01 6.000000e-01 0.000000e+00  
 6.000000e-01 6.000000e-01 0.000000e+00  
 8.000000e-01 6.000000e-01 0.000000e+00  
 1.000000e+00 6.000000e-01 0.000000e+00  
 0.000000e+00 8.000000e-01 0.000000e+00  
 2.000000e-01 8.000000e-01 0.000000e+00  
 4.000000e-01 8.000000e-01 0.000000e+00  
 6.000000e-01 8.000000e-01 0.000000e+00  
 8.000000e-01 8.000000e-01 0.000000e+00  
 1.000000e+00 8.000000e-01 0.000000e+00  
 0.000000e+00 1.000000e+00 0.000000e+00  
 2.000000e-01 1.000000e+00 0.000000e+00  
 4.000000e-01 1.000000e+00 0.000000e+00  
 6.000000e-01 1.000000e+00 0.000000e+00  
 8.000000e-01 1.000000e+00 0.000000e+00  
 1.000000e+00 1.000000e+00 0.000000e+00  
  
 POLYGONS 25 125 
 4 0  1  7  6   
 4 1  2  8  7   
 4 2  3  9  8   
 4 3  4  10  9   
 4 4  5  11  10   
 4 6  7  13  12   
 4 7  8  14  13   
 4 8  9  15  14   
 4 9  10  16  15   
 4 10  11  17  16   
 4 12  13  19  18   
 4 13  14  20  19   
 4 14  15  21  20   
 4 15  16  22  21   
 4 16  17  23  22   
 4 18  19  25  24   
 4 19  20  26  25   
 4 20  21  27  26   
 4 21  22  28  27   
 4 22  23  29  28   
 4 24  25  31  30   
 4 25  26  32  31   
 4 26  27  33  32   
 4 27  28  34  33   
 4 28  29  35  34   
  
 POINT_DATA 36 
 VECTORS Displacement float 
 0.000000e+00 0.000000e+00 0.000000e+00  
 2.000000e-01 2.000000e-01 0.000000e+00  
 4.000000e-01 4.000000e-01 0.000000e+00  
 6.000000e-01 6.000000e-01 0.000000e+00  
 8.000000e-01 8.000000e-01 0.000000e+00  
 1.000000e+00 1.000000e+00 0.000000e+00  
 0.000000e+00 2.000000e-01 0.000000e+00  
 2.000000e-01 4.000000e-01 0.000000e+00  
 4.000000e-01 6.000000e-01 0.000000e+00  
 6.000000e-01 8.000000e-01 0.000000e+00  
 8.000000e-01 1.000000e+00 0.000000e+00  
 1.000000e+00 1.200000e+00 0.000000e+00  
 0.000000e+00 4.000000e-01 0.000000e+00  
 2.000000e-01 6.000000e-01 0.000000e+00  
 4.000000e-01 8.000000e-01 0.000000e+00  
 6.000000e-01 1.000000e+00 0.000000e+00  
 8.000000e-01 1.200000e+00 0.000000e+00  
 1.000000e+00 1.400000e+00 0.000000e+00  
 0.000000e+00 6.000000e-01 0.000000e+00  
 2.000000e-01 8.000000e-01 0.000000e+00  
 4.000000e-01 1.000000e+00 0.000000e+00  
 6.000000e-01 1.200000e+00 0.000000e+00  
 8.000000e-01 1.400000e+00 0.000000e+00  
 1.000000e+00 1.600000e+00 0.000000e+00  
 0.000000e+00 8.000000e-01 0.000000e+00  
 2.000000e-01 1.000000e+00 0.000000e+00  
 4.000000e-01 1.200000e+00 0.000000e+00  
 6.000000e-01 1.400000e+00 0.000000e+00  
 8.000000e-01 1.600000e+00 0.000000e+00  
 1.000000e+00 1.800000e+00 0.000000e+00  
 0.000000e+00 1.000000e+00 0.000000e+00  
 2.000000e-01 1.200000e+00 0.000000e+00  
 4.000000e-01 1.400000e+00 0.000000e+00  
 6.000000e-01 1.600000e+00 0.000000e+00  
 8.000000e-01 1.800000e+00 0.000000e+00  
 1.000000e+00 2.000000e+00 0.000000e+00  
  
 