# vtk DataFile Version 1.0 
PolyMesh 
ASCII 
 
DATASET POLYDATA 
 
POINTS 202 float 
-9.167700e-12 -8.898500e-12 0.000000e+00  
 -6.927000e-12 1.046782e-01 0.000000e+00  
 1.095944e-01 -7.546200e-12 0.000000e+00  
 7.673304e-02 1.136519e-01 0.000000e+00  
 1.148824e-01 7.634941e-02 0.000000e+00  
 9.826755e-02 1.811080e-01 0.000000e+00  
 5.148066e-02 2.298450e-01 0.000000e+00  
 -6.927000e-12 2.302246e-01 0.000000e+00  
 2.286903e-01 -7.795500e-12 0.000000e+00  
 1.892846e-01 1.042621e-01 0.000000e+00  
 2.276918e-01 7.624521e-02 0.000000e+00  
 1.875450e-01 1.765815e-01 0.000000e+00  
 1.597820e-01 1.949232e-01 0.000000e+00  
 1.584269e-01 2.823828e-01 0.000000e+00  
 1.028207e-01 2.970843e-01 0.000000e+00  
 7.830408e-02 3.451620e-01 0.000000e+00  
 -7.081300e-12 3.495845e-01 0.000000e+00  
 -7.616000e-12 4.563366e-01 0.000000e+00  
 3.407599e-01 -7.807200e-12 0.000000e+00  
 2.935238e-01 1.079265e-01 0.000000e+00  
 3.407125e-01 7.581189e-02 0.000000e+00  
 4.516475e-01 -7.857100e-12 0.000000e+00  
 2.941428e-01 1.715837e-01 0.000000e+00  
 2.521883e-01 2.001172e-01 0.000000e+00  
 1.931504e-01 3.029196e-01 0.000000e+00  
 2.558358e-01 2.696836e-01 0.000000e+00  
 2.004789e-01 3.630384e-01 0.000000e+00  
 1.135648e-01 4.018038e-01 0.000000e+00  
 1.547720e-01 4.045962e-01 0.000000e+00  
 7.271470e-02 4.582769e-01 0.000000e+00  
 -7.616000e-12 5.688561e-01 0.000000e+00  
 1.060682e-01 5.175293e-01 0.000000e+00  
 7.784217e-02 5.672483e-01 0.000000e+00  
 -8.084300e-12 6.767992e-01 0.000000e+00  
 -7.552100e-12 7.820670e-01 0.000000e+00  
 4.016243e-01 1.083482e-01 0.000000e+00  
 4.514398e-01 7.677177e-02 0.000000e+00  
 3.554674e-01 1.995257e-01 0.000000e+00  
 4.011442e-01 1.706797e-01 0.000000e+00  
 5.611062e-01 -7.880800e-12 0.000000e+00  
 5.092185e-01 1.087879e-01 0.000000e+00  
 5.610060e-01 7.715415e-02 0.000000e+00  
 6.698087e-01 -7.880800e-12 0.000000e+00  
 7.775955e-01 -7.243900e-12 0.000000e+00  
 3.040365e-01 2.956215e-01 0.000000e+00  
 3.558541e-01 2.678461e-01 0.000000e+00  
 3.040448e-01 3.667149e-01 0.000000e+00  
 2.647777e-01 3.891160e-01 0.000000e+00  
 1.781282e-01 5.129894e-01 0.000000e+00  
 2.589836e-01 4.668150e-01 0.000000e+00  
 1.949764e-01 4.841399e-01 0.000000e+00  
 1.107046e-01 6.229575e-01 0.000000e+00  
 7.777790e-02 6.764070e-01 0.000000e+00  
 2.025162e-01 5.746955e-01 0.000000e+00  
 1.624699e-01 6.234085e-01 0.000000e+00  
 1.090450e-01 7.314663e-01 0.000000e+00  
 8.550132e-02 7.846457e-01 0.000000e+00  
 1.043356e-01 8.176501e-01 0.000000e+00  
 7.264966e-02 8.908947e-01 0.000000e+00  
 -8.853400e-12 8.958978e-01 0.000000e+00  
 -8.853400e-12 1.000000e+00 0.000000e+00  
 5.091188e-01 1.706943e-01 0.000000e+00  
 4.604224e-01 2.011298e-01 0.000000e+00  
 4.605118e-01 2.642208e-01 0.000000e+00  
 4.070493e-01 2.950001e-01 0.000000e+00  
 6.168681e-01 1.089191e-01 0.000000e+00  
 6.699509e-01 7.762432e-02 0.000000e+00  
 5.674205e-01 2.014640e-01 0.000000e+00  
 6.165659e-01 1.703824e-01 0.000000e+00  
 7.225340e-01 1.079942e-01 0.000000e+00  
 7.800956e-01 7.616491e-02 0.000000e+00  
 8.209797e-01 1.012177e-01 0.000000e+00  
 8.894687e-01 6.998942e-02 0.000000e+00  
 8.946484e-01 -8.661800e-12 0.000000e+00  
 1.000000e+00 -8.661800e-12 0.000000e+00  
 3.571229e-01 3.913010e-01 0.000000e+00  
 4.094870e-01 3.614306e-01 0.000000e+00  
 2.966190e-01 4.926303e-01 0.000000e+00  
 3.617306e-01 4.647335e-01 0.000000e+00  
 2.969770e-01 5.652151e-01 0.000000e+00  
 2.647855e-01 5.870596e-01 0.000000e+00  
 1.908028e-01 7.224050e-01 0.000000e+00  
 2.033506e-01 6.980375e-01 0.000000e+00  
 2.691182e-01 6.764612e-01 0.000000e+00  
 2.137454e-01 7.874403e-01 0.000000e+00  
 1.744686e-01 8.312889e-01 0.000000e+00  
 1.902650e-01 8.965911e-01 0.000000e+00  
 1.124428e-01 9.323592e-01 0.000000e+00  
 1.081766e-01 1.000000e+00 0.000000e+00  
 5.679042e-01 2.637557e-01 0.000000e+00  
 5.148306e-01 2.951211e-01 0.000000e+00  
 5.147951e-01 3.550032e-01 0.000000e+00  
 4.595272e-01 3.877818e-01 0.000000e+00  
 7.230759e-01 1.716660e-01 0.000000e+00  
 6.771376e-01 2.025344e-01 0.000000e+00  
 6.769189e-01 2.609891e-01 0.000000e+00  
 6.210602e-01 2.935114e-01 0.000000e+00  
 7.881827e-01 2.014714e-01 0.000000e+00  
 8.277469e-01 1.699300e-01 0.000000e+00  
 8.961379e-01 1.887776e-01 0.000000e+00  
 9.310482e-01 1.101333e-01 0.000000e+00  
 1.000000e+00 1.058048e-01 0.000000e+00  
 3.997187e-01 4.863418e-01 0.000000e+00  
 4.640947e-01 4.526393e-01 0.000000e+00  
 3.572811e-01 5.877007e-01 0.000000e+00  
 4.077374e-01 5.545861e-01 0.000000e+00  
 3.056359e-01 6.953433e-01 0.000000e+00  
 3.661160e-01 6.621575e-01 0.000000e+00  
 2.770373e-01 8.011415e-01 0.000000e+00  
 3.151466e-01 7.700307e-01 0.000000e+00  
 2.888326e-01 8.820352e-01 0.000000e+00  
 2.183862e-01 9.130107e-01 0.000000e+00  
 2.267888e-01 1.000000e+00 0.000000e+00  
 6.226599e-01 3.574132e-01 0.000000e+00  
 5.713982e-01 3.892474e-01 0.000000e+00  
 5.074122e-01 4.781700e-01 0.000000e+00  
 5.699421e-01 4.408980e-01 0.000000e+00  
 7.904968e-01 2.612836e-01 0.000000e+00  
 7.285839e-01 2.937296e-01 0.000000e+00  
 7.274879e-01 3.531591e-01 0.000000e+00  
 6.781804e-01 3.851105e-01 0.000000e+00  
 8.284630e-01 2.865685e-01 0.000000e+00  
 9.119971e-01 2.167290e-01 0.000000e+00  
 8.917628e-01 2.687015e-01 0.000000e+00  
 1.000000e+00 2.189107e-01 0.000000e+00  
 5.142586e-01 5.370427e-01 0.000000e+00  
 4.556783e-01 5.757665e-01 0.000000e+00  
 4.673045e-01 6.383406e-01 0.000000e+00  
 4.145670e-01 6.830396e-01 0.000000e+00  
 3.829258e-01 7.891074e-01 0.000000e+00  
 4.263031e-01 7.314446e-01 0.000000e+00  
 3.961395e-01 8.227678e-01 0.000000e+00  
 3.270465e-01 9.022758e-01 0.000000e+00  
 3.668946e-01 8.888776e-01 0.000000e+00  
 3.209309e-01 1.000000e+00 0.000000e+00  
 5.575346e-01 5.602743e-01 0.000000e+00  
 6.820492e-01 4.522853e-01 0.000000e+00  
 6.269726e-01 4.838630e-01 0.000000e+00  
 6.218936e-01 5.238259e-01 0.000000e+00  
 7.250527e-01 4.734016e-01 0.000000e+00  
 7.962319e-01 3.907816e-01 0.000000e+00  
 8.268139e-01 3.692562e-01 0.000000e+00  
 7.912556e-01 4.346311e-01 0.000000e+00  
 8.946342e-01 3.838132e-01 0.000000e+00  
 9.341299e-01 3.266130e-01 0.000000e+00  
 1.000000e+00 3.255264e-01 0.000000e+00  
 5.263673e-01 6.591137e-01 0.000000e+00  
 5.670648e-01 6.231422e-01 0.000000e+00  
 5.030682e-01 7.553827e-01 0.000000e+00  
 5.362928e-01 7.195533e-01 0.000000e+00  
 5.093815e-01 8.103412e-01 0.000000e+00  
 4.810678e-01 8.422703e-01 0.000000e+00  
 4.858825e-01 8.972271e-01 0.000000e+00  
 4.315967e-01 9.366699e-01 0.000000e+00  
 4.288647e-01 1.000000e+00 0.000000e+00  
 6.748447e-01 5.792260e-01 0.000000e+00  
 6.276330e-01 6.404696e-01 0.000000e+00  
 7.070467e-01 5.782489e-01 0.000000e+00  
 7.391353e-01 5.406719e-01 0.000000e+00  
 8.423127e-01 4.876054e-01 0.000000e+00  
 8.094153e-01 5.474757e-01 0.000000e+00  
 8.874832e-01 4.816261e-01 0.000000e+00  
 9.166248e-01 4.348438e-01 0.000000e+00  
 1.000000e+00 4.371369e-01 0.000000e+00  
 6.084402e-01 7.358172e-01 0.000000e+00  
 6.460824e-01 6.892052e-01 0.000000e+00  
 6.243568e-01 7.951880e-01 0.000000e+00  
 5.915831e-01 8.327574e-01 0.000000e+00  
 5.980892e-01 8.878392e-01 0.000000e+00  
 5.424360e-01 9.284496e-01 0.000000e+00  
 5.461005e-01 1.000000e+00 0.000000e+00  
 7.086272e-01 6.999163e-01 0.000000e+00  
 7.452596e-01 6.456350e-01 0.000000e+00  
 8.030765e-01 6.460090e-01 0.000000e+00  
 8.347551e-01 5.968370e-01 0.000000e+00  
 8.941212e-01 5.988892e-01 0.000000e+00  
 9.296067e-01 5.460970e-01 0.000000e+00  
 1.000000e+00 5.439947e-01 0.000000e+00  
 6.959816e-01 8.061516e-01 0.000000e+00  
 7.291831e-01 7.433106e-01 0.000000e+00  
 7.140163e-01 8.401420e-01 0.000000e+00  
 6.979544e-01 8.953392e-01 0.000000e+00  
 6.548360e-01 9.182079e-01 0.000000e+00  
 6.507461e-01 1.000000e+00 0.000000e+00  
 8.330444e-01 7.061874e-01 0.000000e+00  
 8.016747e-01 7.516382e-01 0.000000e+00  
 8.925752e-01 7.075328e-01 0.000000e+00  
 9.270743e-01 6.583601e-01 0.000000e+00  
 1.000000e+00 6.591593e-01 0.000000e+00  
 8.225353e-01 8.125375e-01 0.000000e+00  
 8.035406e-01 8.409595e-01 0.000000e+00  
 8.158709e-01 9.014396e-01 0.000000e+00  
 7.688756e-01 9.471619e-01 0.000000e+00  
 7.681918e-01 1.000000e+00 0.000000e+00  
 8.956715e-01 8.128197e-01 0.000000e+00  
 9.251635e-01 7.727353e-01 0.000000e+00  
 1.000000e+00 7.721827e-01 0.000000e+00  
 8.854577e-01 9.240112e-01 0.000000e+00  
 9.224096e-01 8.856057e-01 0.000000e+00  
 8.939320e-01 1.000000e+00 0.000000e+00  
 1.000000e+00 8.913345e-01 0.000000e+00  
 1.000000e+00 1.000000e+00 0.000000e+00  
  
 POLYGONS 100 666 
 6 151  150  167  168  169  152   
 6 106  107  128  130  129  109   
 6 96  95  118  119  120  113   
 6 173  174  175  187  186  184   
 5 28  26  47  49  50   
 5 21  39  41  40  36   
 6 37  38  62  63  64  45   
 6 65  66  69  93  94  68   
 6 67  68  94  95  96  89   
 6 94  93  97  117  118  95   
 6 77  78  102  105  104  79   
 5 42  43  70  69  66   
 5 180  190  191  192  181   
 5 111  110  132  134  112   
 5 17  29  31  32  30   
 6 126  125  135  147  146  127   
 5 161  162  163  177  176   
 5 153  152  169  170  154   
 6 114  113  120  136  137  116   
 6 3  4  9  11  12  5   
 6 179  185  189  190  180  178   
 6 47  46  75  78  77  49   
 6 64  63  90  91  92  76   
 7 137  136  139  158  157  155  138   
 5 43  73  72  71  70   
 5 100  101  124  122  99   
 5 169  168  182  183  170   
 5 87  86  111  112  88   
 5 30  32  51  52  33   
 5 8  18  20  19  10   
 7 97  98  99  122  123  121  117   
 6 44  45  64  76  75  46   
 6 190  189  194  198  197  191   
 5 2  8  10  9  4   
 5 73  74  101  100  72   
 6 19  20  35  38  37  22   
 7 81  82  83  106  109  108  84   
 6 55  81  84  85  57  56   
 6 148  149  164  166  167  150   
 6 102  103  115  125  126  105   
 6 80  79  104  107  106  83   
 6 118  117  121  141  140  119   
 7 167  166  178  180  181  182  168   
 6 40  41  65  68  67  61   
 5 186  187  188  196  195   
 6 9  10  19  22  23  11   
 6 120  119  140  142  139  136   
 6 185  184  186  195  194  189   
 6 129  130  148  150  151  131   
 5 39  42  66  65  41   
 5 59  58  87  88  60   
 5 33  52  55  56  34   
 6 115  116  137  138  135  125   
 6 157  158  160  174  173  172   
 5 175  176  177  188  187   
 5 6  5  12  13  14   
 5 135  138  155  156  147   
 6 104  105  126  127  128  107   
 5 34  56  57  58  59   
 5 131  151  152  153  133   
 6 52  51  54  82  81  55   
 5 139  142  159  160  158   
 5 132  133  153  154  134   
 6 146  147  156  165  164  149   
 6 24  25  44  46  47  26   
 5 182  181  192  193  183   
 6 85  84  108  110  111  86   
 6 155  157  172  171  165  156   
 6 164  165  171  179  178  166   
 6 172  173  184  185  179  171   
 6 35  36  40  61  62  38   
 5 7  6  14  15  16   
 7 48  50  49  77  79  80  53   
 5 121  123  144  143  141   
 5 57  85  86  87  58   
 5 71  72  100  99  98   
 6 62  61  67  89  90  63   
 5 123  122  124  145  144   
 5 1  3  5  6  7   
 6 75  76  92  103  102  78   
 7 14  13  24  26  28  27  15   
 5 194  195  196  200  198   
 5 16  15  27  29  17   
 6 69  70  71  98  97  93   
 5 192  191  197  199  193   
 5 197  198  200  201  199   
 6 29  27  28  50  48  31   
 5 18  21  36  35  20   
 6 23  22  37  45  44  25   
 6 159  161  176  175  174  160   
 6 128  127  146  149  148  130   
 5 144  145  163  162  143   
 5 54  53  80  83  82   
 7 108  109  129  131  133  132  110   
 6 12  11  23  25  24  13   
 5 0  2  4  3  1   
 7 140  141  143  162  161  159  142   
 6 90  89  96  113  114  91   
 6 92  91  114  116  115  103   
 6 32  31  48  53  54  51   
  
 POINT_DATA 202 
 VECTORS Displacement float 
 -9.167700e-12 -1.806620e-11 0.000000e+00  
 -6.927000e-12 1.046782e-01 0.000000e+00  
 1.095944e-01 1.095944e-01 0.000000e+00  
 7.673304e-02 1.903849e-01 0.000000e+00  
 1.148824e-01 1.912318e-01 0.000000e+00  
 9.826755e-02 2.793755e-01 0.000000e+00  
 5.148066e-02 2.813257e-01 0.000000e+00  
 -6.927000e-12 2.302246e-01 0.000000e+00  
 2.286903e-01 2.286903e-01 0.000000e+00  
 1.892846e-01 2.935467e-01 0.000000e+00  
 2.276918e-01 3.039370e-01 0.000000e+00  
 1.875450e-01 3.641266e-01 0.000000e+00  
 1.597820e-01 3.547052e-01 0.000000e+00  
 1.584269e-01 4.408097e-01 0.000000e+00  
 1.028207e-01 3.999049e-01 0.000000e+00  
 7.830408e-02 4.234661e-01 0.000000e+00  
 -7.081300e-12 3.495845e-01 0.000000e+00  
 -7.616000e-12 4.563366e-01 0.000000e+00  
 3.407599e-01 3.407599e-01 0.000000e+00  
 2.935238e-01 4.014502e-01 0.000000e+00  
 3.407125e-01 4.165243e-01 0.000000e+00  
 4.516475e-01 4.516475e-01 0.000000e+00  
 2.941428e-01 4.657265e-01 0.000000e+00  
 2.521883e-01 4.523055e-01 0.000000e+00  
 1.931504e-01 4.960699e-01 0.000000e+00  
 2.558358e-01 5.255194e-01 0.000000e+00  
 2.004789e-01 5.635173e-01 0.000000e+00  
 1.135648e-01 5.153687e-01 0.000000e+00  
 1.547720e-01 5.593682e-01 0.000000e+00  
 7.271470e-02 5.309916e-01 0.000000e+00  
 -7.616000e-12 5.688561e-01 0.000000e+00  
 1.060682e-01 6.235975e-01 0.000000e+00  
 7.784217e-02 6.450905e-01 0.000000e+00  
 -8.084300e-12 6.767992e-01 0.000000e+00  
 -7.552100e-12 7.820670e-01 0.000000e+00  
 4.016243e-01 5.099725e-01 0.000000e+00  
 4.514398e-01 5.282115e-01 0.000000e+00  
 3.554674e-01 5.549931e-01 0.000000e+00  
 4.011442e-01 5.718239e-01 0.000000e+00  
 5.611062e-01 5.611062e-01 0.000000e+00  
 5.092185e-01 6.180064e-01 0.000000e+00  
 5.610060e-01 6.381602e-01 0.000000e+00  
 6.698087e-01 6.698087e-01 0.000000e+00  
 7.775955e-01 7.775955e-01 0.000000e+00  
 3.040365e-01 5.996580e-01 0.000000e+00  
 3.558541e-01 6.237001e-01 0.000000e+00  
 3.040448e-01 6.707597e-01 0.000000e+00  
 2.647777e-01 6.538937e-01 0.000000e+00  
 1.781282e-01 6.911177e-01 0.000000e+00  
 2.589836e-01 7.257987e-01 0.000000e+00  
 1.949764e-01 6.791163e-01 0.000000e+00  
 1.107046e-01 7.336621e-01 0.000000e+00  
 7.777790e-02 7.541849e-01 0.000000e+00  
 2.025162e-01 7.772117e-01 0.000000e+00  
 1.624699e-01 7.858784e-01 0.000000e+00  
 1.090450e-01 8.405113e-01 0.000000e+00  
 8.550132e-02 8.701470e-01 0.000000e+00  
 1.043356e-01 9.219857e-01 0.000000e+00  
 7.264966e-02 9.635443e-01 0.000000e+00  
 -8.853400e-12 8.958978e-01 0.000000e+00  
 -8.853400e-12 1.000000e+00 0.000000e+00  
 5.091188e-01 6.798130e-01 0.000000e+00  
 4.604224e-01 6.615521e-01 0.000000e+00  
 4.605118e-01 7.247326e-01 0.000000e+00  
 4.070493e-01 7.020494e-01 0.000000e+00  
 6.168681e-01 7.257872e-01 0.000000e+00  
 6.699509e-01 7.475752e-01 0.000000e+00  
 5.674205e-01 7.688845e-01 0.000000e+00  
 6.165659e-01 7.869483e-01 0.000000e+00  
 7.225340e-01 8.305282e-01 0.000000e+00  
 7.800956e-01 8.562605e-01 0.000000e+00  
 8.209797e-01 9.221975e-01 0.000000e+00  
 8.894687e-01 9.594581e-01 0.000000e+00  
 8.946484e-01 8.946484e-01 0.000000e+00  
 1.000000e+00 1.000000e+00 0.000000e+00  
 3.571229e-01 7.484239e-01 0.000000e+00  
 4.094870e-01 7.709175e-01 0.000000e+00  
 2.966190e-01 7.892493e-01 0.000000e+00  
 3.617306e-01 8.264642e-01 0.000000e+00  
 2.969770e-01 8.621921e-01 0.000000e+00  
 2.647855e-01 8.518451e-01 0.000000e+00  
 1.908028e-01 9.132078e-01 0.000000e+00  
 2.033506e-01 9.013881e-01 0.000000e+00  
 2.691182e-01 9.455794e-01 0.000000e+00  
 2.137454e-01 1.001186e+00 0.000000e+00  
 1.744686e-01 1.005758e+00 0.000000e+00  
 1.902650e-01 1.086856e+00 0.000000e+00  
 1.124428e-01 1.044802e+00 0.000000e+00  
 1.081766e-01 1.108177e+00 0.000000e+00  
 5.679042e-01 8.316599e-01 0.000000e+00  
 5.148306e-01 8.099517e-01 0.000000e+00  
 5.147951e-01 8.697983e-01 0.000000e+00  
 4.595272e-01 8.473090e-01 0.000000e+00  
 7.230759e-01 8.947419e-01 0.000000e+00  
 6.771376e-01 8.796720e-01 0.000000e+00  
 6.769189e-01 9.379080e-01 0.000000e+00  
 6.210602e-01 9.145716e-01 0.000000e+00  
 7.881827e-01 9.896541e-01 0.000000e+00  
 8.277469e-01 9.976769e-01 0.000000e+00  
 8.961379e-01 1.084916e+00 0.000000e+00  
 9.310482e-01 1.041181e+00 0.000000e+00  
 1.000000e+00 1.105805e+00 0.000000e+00  
 3.997187e-01 8.860605e-01 0.000000e+00  
 4.640947e-01 9.167341e-01 0.000000e+00  
 3.572811e-01 9.449818e-01 0.000000e+00  
 4.077374e-01 9.623235e-01 0.000000e+00  
 3.056359e-01 1.000979e+00 0.000000e+00  
 3.661160e-01 1.028273e+00 0.000000e+00  
 2.770373e-01 1.078179e+00 0.000000e+00  
 3.151466e-01 1.085177e+00 0.000000e+00  
 2.888326e-01 1.170868e+00 0.000000e+00  
 2.183862e-01 1.131397e+00 0.000000e+00  
 2.267888e-01 1.226789e+00 0.000000e+00  
 6.226599e-01 9.800731e-01 0.000000e+00  
 5.713982e-01 9.606456e-01 0.000000e+00  
 5.074122e-01 9.855822e-01 0.000000e+00  
 5.699421e-01 1.010840e+00 0.000000e+00  
 7.904968e-01 1.051780e+00 0.000000e+00  
 7.285839e-01 1.022313e+00 0.000000e+00  
 7.274879e-01 1.080647e+00 0.000000e+00  
 6.781804e-01 1.063291e+00 0.000000e+00  
 8.284630e-01 1.115031e+00 0.000000e+00  
 9.119971e-01 1.128726e+00 0.000000e+00  
 8.917628e-01 1.160464e+00 0.000000e+00  
 1.000000e+00 1.218911e+00 0.000000e+00  
 5.142586e-01 1.051301e+00 0.000000e+00  
 4.556783e-01 1.031445e+00 0.000000e+00  
 4.673045e-01 1.105645e+00 0.000000e+00  
 4.145670e-01 1.097607e+00 0.000000e+00  
 3.829258e-01 1.172033e+00 0.000000e+00  
 4.263031e-01 1.157748e+00 0.000000e+00  
 3.961395e-01 1.218907e+00 0.000000e+00  
 3.270465e-01 1.229322e+00 0.000000e+00  
 3.668946e-01 1.255772e+00 0.000000e+00  
 3.209309e-01 1.320931e+00 0.000000e+00  
 5.575346e-01 1.117809e+00 0.000000e+00  
 6.820492e-01 1.134335e+00 0.000000e+00  
 6.269726e-01 1.110836e+00 0.000000e+00  
 6.218936e-01 1.145720e+00 0.000000e+00  
 7.250527e-01 1.198454e+00 0.000000e+00  
 7.962319e-01 1.187013e+00 0.000000e+00  
 8.268139e-01 1.196070e+00 0.000000e+00  
 7.912556e-01 1.225887e+00 0.000000e+00  
 8.946342e-01 1.278447e+00 0.000000e+00  
 9.341299e-01 1.260743e+00 0.000000e+00  
 1.000000e+00 1.325526e+00 0.000000e+00  
 5.263673e-01 1.185481e+00 0.000000e+00  
 5.670648e-01 1.190207e+00 0.000000e+00  
 5.030682e-01 1.258451e+00 0.000000e+00  
 5.362928e-01 1.255846e+00 0.000000e+00  
 5.093815e-01 1.319723e+00 0.000000e+00  
 4.810678e-01 1.323338e+00 0.000000e+00  
 4.858825e-01 1.383110e+00 0.000000e+00  
 4.315967e-01 1.368267e+00 0.000000e+00  
 4.288647e-01 1.428865e+00 0.000000e+00  
 6.748447e-01 1.254071e+00 0.000000e+00  
 6.276330e-01 1.268103e+00 0.000000e+00  
 7.070467e-01 1.285296e+00 0.000000e+00  
 7.391353e-01 1.279807e+00 0.000000e+00  
 8.423127e-01 1.329918e+00 0.000000e+00  
 8.094153e-01 1.356891e+00 0.000000e+00  
 8.874832e-01 1.369109e+00 0.000000e+00  
 9.166248e-01 1.351469e+00 0.000000e+00  
 1.000000e+00 1.437137e+00 0.000000e+00  
 6.084402e-01 1.344257e+00 0.000000e+00  
 6.460824e-01 1.335288e+00 0.000000e+00  
 6.243568e-01 1.419545e+00 0.000000e+00  
 5.915831e-01 1.424340e+00 0.000000e+00  
 5.980892e-01 1.485928e+00 0.000000e+00  
 5.424360e-01 1.470886e+00 0.000000e+00  
 5.461005e-01 1.546100e+00 0.000000e+00  
 7.086272e-01 1.408544e+00 0.000000e+00  
 7.452596e-01 1.390895e+00 0.000000e+00  
 8.030765e-01 1.449085e+00 0.000000e+00  
 8.347551e-01 1.431592e+00 0.000000e+00  
 8.941212e-01 1.493010e+00 0.000000e+00  
 9.296067e-01 1.475704e+00 0.000000e+00  
 1.000000e+00 1.543995e+00 0.000000e+00  
 6.959816e-01 1.502133e+00 0.000000e+00  
 7.291831e-01 1.472494e+00 0.000000e+00  
 7.140163e-01 1.554158e+00 0.000000e+00  
 6.979544e-01 1.593294e+00 0.000000e+00  
 6.548360e-01 1.573044e+00 0.000000e+00  
 6.507461e-01 1.650746e+00 0.000000e+00  
 8.330444e-01 1.539232e+00 0.000000e+00  
 8.016747e-01 1.553313e+00 0.000000e+00  
 8.925752e-01 1.600108e+00 0.000000e+00  
 9.270743e-01 1.585434e+00 0.000000e+00  
 1.000000e+00 1.659159e+00 0.000000e+00  
 8.225353e-01 1.635073e+00 0.000000e+00  
 8.035406e-01 1.644500e+00 0.000000e+00  
 8.158709e-01 1.717310e+00 0.000000e+00  
 7.688756e-01 1.716038e+00 0.000000e+00  
 7.681918e-01 1.768192e+00 0.000000e+00  
 8.956715e-01 1.708491e+00 0.000000e+00  
 9.251635e-01 1.697899e+00 0.000000e+00  
 1.000000e+00 1.772183e+00 0.000000e+00  
 8.854577e-01 1.809469e+00 0.000000e+00  
 9.224096e-01 1.808015e+00 0.000000e+00  
 8.939320e-01 1.893932e+00 0.000000e+00  
 1.000000e+00 1.891334e+00 0.000000e+00  
 1.000000e+00 2.000000e+00 0.000000e+00  
  
 