# vtk DataFile Version 1.0 
PolyMesh 
ASCII 
 
DATASET POLYDATA 
 
POINTS 2002 float 
8.480000e-14 1.000000e+00 0.000000e+00  
 -2.864400e-12 9.671832e-01 0.000000e+00  
 2.888435e-02 9.697816e-01 0.000000e+00  
 2.903818e-02 1.000000e+00 0.000000e+00  
 -2.864400e-12 9.368719e-01 0.000000e+00  
 2.265115e-02 9.347716e-01 0.000000e+00  
 3.609866e-02 9.636366e-01 0.000000e+00  
 3.715730e-02 9.511579e-01 0.000000e+00  
 6.003666e-02 9.748268e-01 0.000000e+00  
 5.946887e-02 1.000000e+00 0.000000e+00  
 9.232751e-02 1.000000e+00 0.000000e+00  
 8.860000e-14 9.004454e-01 0.000000e+00  
 3.238437e-02 9.149818e-01 0.000000e+00  
 2.443846e-02 9.012098e-01 0.000000e+00  
 5.972595e-02 9.372819e-01 0.000000e+00  
 5.428180e-02 9.169939e-01 0.000000e+00  
 7.250940e-02 9.434648e-01 0.000000e+00  
 7.399600e-02 9.653476e-01 0.000000e+00  
 9.207852e-02 9.735522e-01 0.000000e+00  
 8.860000e-14 8.668745e-01 0.000000e+00  
 1.069075e-01 9.646118e-01 0.000000e+00  
 1.249881e-01 9.746279e-01 0.000000e+00  
 1.247735e-01 1.000000e+00 0.000000e+00  
 3.447297e-02 8.834507e-01 0.000000e+00  
 2.425805e-02 8.668405e-01 0.000000e+00  
 6.473439e-02 9.038362e-01 0.000000e+00  
 5.200732e-02 8.831670e-01 0.000000e+00  
 8.972682e-02 9.338679e-01 0.000000e+00  
 9.132422e-02 9.187356e-01 0.000000e+00  
 7.567162e-02 9.033339e-01 0.000000e+00  
 1.075784e-01 9.461126e-01 0.000000e+00  
 9.060000e-14 8.329838e-01 0.000000e+00  
 3.426091e-02 8.492083e-01 0.000000e+00  
 2.542403e-02 8.332793e-01 0.000000e+00  
 1.579823e-01 1.000000e+00 0.000000e+00  
 1.257104e-01 9.359565e-01 0.000000e+00  
 1.407503e-01 9.438968e-01 0.000000e+00  
 1.413917e-01 9.652443e-01 0.000000e+00  
 1.577695e-01 9.739144e-01 0.000000e+00  
 6.305956e-02 8.662346e-01 0.000000e+00  
 5.486678e-02 8.500853e-01 0.000000e+00  
 1.238084e-01 9.134545e-01 0.000000e+00  
 8.311154e-02 8.683701e-01 0.000000e+00  
 8.975330e-02 8.819493e-01 0.000000e+00  
 1.082880e-01 8.863750e-01 0.000000e+00  
 1.130628e-01 9.079507e-01 0.000000e+00  
 1.906527e-01 1.000000e+00 0.000000e+00  
 9.110000e-14 7.998508e-01 0.000000e+00  
 3.482941e-02 8.164139e-01 0.000000e+00  
 2.588818e-02 7.999146e-01 0.000000e+00  
 5.604134e-02 8.167307e-01 0.000000e+00  
 6.460306e-02 8.336827e-01 0.000000e+00  
 1.742039e-01 9.648536e-01 0.000000e+00  
 1.906139e-01 9.736459e-01 0.000000e+00  
 1.413316e-01 9.047928e-01 0.000000e+00  
 1.572811e-01 9.126362e-01 0.000000e+00  
 1.574803e-01 9.347112e-01 0.000000e+00  
 1.740192e-01 9.434728e-01 0.000000e+00  
 8.636975e-02 8.345081e-01 0.000000e+00  
 9.389237e-02 8.511170e-01 0.000000e+00  
 1.164214e-01 8.534685e-01 0.000000e+00  
 1.408672e-01 8.791598e-01 0.000000e+00  
 1.220930e-01 8.737330e-01 0.000000e+00  
 2.071732e-01 9.647560e-01 0.000000e+00  
 2.233119e-01 9.735990e-01 0.000000e+00  
 2.233318e-01 1.000000e+00 0.000000e+00  
 9.110000e-14 7.667141e-01 0.000000e+00  
 3.503651e-02 7.833963e-01 0.000000e+00  
 2.574531e-02 7.666742e-01 0.000000e+00  
 5.567239e-02 7.832751e-01 0.000000e+00  
 6.535784e-02 8.007334e-01 0.000000e+00  
 9.569547e-02 8.191380e-01 0.000000e+00  
 8.502963e-02 8.004614e-01 0.000000e+00  
 2.071577e-01 9.434530e-01 0.000000e+00  
 1.905702e-01 9.342207e-01 0.000000e+00  
 1.518135e-01 8.723975e-01 0.000000e+00  
 1.737625e-01 8.841863e-01 0.000000e+00  
 1.727021e-01 9.040398e-01 0.000000e+00  
 1.905905e-01 9.140265e-01 0.000000e+00  
 1.273617e-01 8.394853e-01 0.000000e+00  
 1.137608e-01 8.182379e-01 0.000000e+00  
 1.380383e-01 8.388174e-01 0.000000e+00  
 1.547616e-01 8.544445e-01 0.000000e+00  
 2.559459e-01 1.000000e+00 0.000000e+00  
 2.242001e-01 9.342432e-01 0.000000e+00  
 2.401038e-01 9.431623e-01 0.000000e+00  
 2.402466e-01 9.647391e-01 0.000000e+00  
 2.558193e-01 9.733605e-01 0.000000e+00  
 2.881623e-01 1.000000e+00 0.000000e+00  
 9.080000e-14 7.334695e-01 0.000000e+00  
 3.496379e-02 7.499207e-01 0.000000e+00  
 2.570339e-02 7.334560e-01 0.000000e+00  
 6.508595e-02 7.666776e-01 0.000000e+00  
 5.562399e-02 7.498882e-01 0.000000e+00  
 9.500445e-02 7.838564e-01 0.000000e+00  
 8.533815e-02 7.666775e-01 0.000000e+00  
 1.240570e-01 8.016534e-01 0.000000e+00  
 1.145300e-01 7.841328e-01 0.000000e+00  
 2.075214e-01 9.040033e-01 0.000000e+00  
 2.240016e-01 9.132454e-01 0.000000e+00  
 1.732111e-01 8.463222e-01 0.000000e+00  
 1.887704e-01 8.554824e-01 0.000000e+00  
 1.884250e-01 8.748878e-01 0.000000e+00  
 2.069751e-01 8.850012e-01 0.000000e+00  
 1.451481e-01 8.023365e-01 0.000000e+00  
 1.524713e-01 8.164662e-01 0.000000e+00  
 1.736519e-01 8.212563e-01 0.000000e+00  
 3.198719e-01 1.000000e+00 0.000000e+00  
 3.510644e-01 1.000000e+00 0.000000e+00  
 2.732709e-01 9.645341e-01 0.000000e+00  
 2.880309e-01 9.727689e-01 0.000000e+00  
 2.413034e-01 9.037795e-01 0.000000e+00  
 2.573602e-01 9.128817e-01 0.000000e+00  
 2.575579e-01 9.340073e-01 0.000000e+00  
 2.728606e-01 9.427665e-01 0.000000e+00  
 3.057538e-01 9.644238e-01 0.000000e+00  
 3.198097e-01 9.723153e-01 0.000000e+00  
 9.070000e-14 7.002798e-01 0.000000e+00  
 9.040000e-14 6.671580e-01 0.000000e+00  
 3.494111e-02 7.164658e-01 0.000000e+00  
 2.560416e-02 7.002435e-01 0.000000e+00  
 6.505261e-02 7.328782e-01 0.000000e+00  
 5.534472e-02 7.163692e-01 0.000000e+00  
 8.477698e-02 7.326830e-01 0.000000e+00  
 9.511488e-02 7.496085e-01 0.000000e+00  
 1.135882e-01 7.492482e-01 0.000000e+00  
 1.251952e-01 7.669660e-01 0.000000e+00  
 1.544287e-01 7.853297e-01 0.000000e+00  
 1.405011e-01 7.664930e-01 0.000000e+00  
 1.810711e-01 8.161595e-01 0.000000e+00  
 2.243524e-01 8.734702e-01 0.000000e+00  
 2.410695e-01 8.828386e-01 0.000000e+00  
 2.059254e-01 8.259809e-01 0.000000e+00  
 2.047048e-01 8.463431e-01 0.000000e+00  
 2.231431e-01 8.569311e-01 0.000000e+00  
 1.841356e-01 7.952372e-01 0.000000e+00  
 1.710016e-01 7.827624e-01 0.000000e+00  
 9.030000e-14 6.341768e-01 0.000000e+00  
 3.821918e-01 1.000000e+00 0.000000e+00  
 3.376590e-01 9.644231e-01 0.000000e+00  
 3.512693e-01 9.723673e-01 0.000000e+00  
 3.694142e-01 9.648400e-01 0.000000e+00  
 3.823562e-01 9.732605e-01 0.000000e+00  
 3.054516e-01 9.414522e-01 0.000000e+00  
 2.914086e-01 9.332562e-01 0.000000e+00  
 2.580425e-01 8.735784e-01 0.000000e+00  
 2.905396e-01 9.126782e-01 0.000000e+00  
 2.748917e-01 8.827356e-01 0.000000e+00  
 2.748755e-01 9.034588e-01 0.000000e+00  
 3.241108e-01 9.330365e-01 0.000000e+00  
 3.378293e-01 9.411860e-01 0.000000e+00  
 3.484247e-02 6.829421e-01 0.000000e+00  
 2.554207e-02 6.671237e-01 0.000000e+00  
 3.476050e-02 6.494255e-01 0.000000e+00  
 2.544035e-02 6.341938e-01 0.000000e+00  
 6.480809e-02 6.989064e-01 0.000000e+00  
 5.524526e-02 6.828572e-01 0.000000e+00  
 9.463143e-02 7.148294e-01 0.000000e+00  
 8.479678e-02 6.988470e-01 0.000000e+00  
 1.241372e-01 7.307223e-01 0.000000e+00  
 1.137547e-01 7.148441e-01 0.000000e+00  
 1.415674e-01 7.307883e-01 0.000000e+00  
 1.533151e-01 7.468434e-01 0.000000e+00  
 1.783141e-01 7.617453e-01 0.000000e+00  
 1.653507e-01 7.471283e-01 0.000000e+00  
 2.151053e-01 8.193455e-01 0.000000e+00  
 2.048413e-01 7.886008e-01 0.000000e+00  
 2.170856e-01 7.984246e-01 0.000000e+00  
 2.418227e-01 8.425298e-01 0.000000e+00  
 2.579335e-01 8.507826e-01 0.000000e+00  
 2.389834e-01 8.284037e-01 0.000000e+00  
 2.736005e-01 8.429845e-01 0.000000e+00  
 2.071999e-01 7.662971e-01 0.000000e+00  
 1.975485e-01 7.585452e-01 0.000000e+00  
 9.100000e-14 6.015788e-01 0.000000e+00  
 3.483084e-02 6.154118e-01 0.000000e+00  
 2.562702e-02 6.016773e-01 0.000000e+00  
 9.150000e-14 5.700500e-01 0.000000e+00  
 9.150000e-14 5.408108e-01 0.000000e+00  
 9.240000e-14 5.108046e-01 0.000000e+00  
 4.127128e-01 1.000000e+00 0.000000e+00  
 4.414532e-01 1.000000e+00 0.000000e+00  
 4.708481e-01 1.000000e+00 0.000000e+00  
 4.991250e-01 1.000000e+00 0.000000e+00  
 4.030670e-01 9.652047e-01 0.000000e+00  
 4.128901e-01 9.729545e-01 0.000000e+00  
 3.558729e-01 9.334335e-01 0.000000e+00  
 3.704984e-01 9.425629e-01 0.000000e+00  
 4.036453e-01 9.464576e-01 0.000000e+00  
 3.872277e-01 9.353232e-01 0.000000e+00  
 3.239217e-01 9.099919e-01 0.000000e+00  
 3.105384e-01 9.014867e-01 0.000000e+00  
 2.925398e-01 8.547634e-01 0.000000e+00  
 2.911059e-01 8.734864e-01 0.000000e+00  
 3.092179e-01 8.848507e-01 0.000000e+00  
 3.439683e-01 9.019467e-01 0.000000e+00  
 3.568890e-01 9.106102e-01 0.000000e+00  
 5.294061e-01 1.000000e+00 0.000000e+00  
 6.456735e-02 6.653033e-01 0.000000e+00  
 5.493094e-02 6.492527e-01 0.000000e+00  
 5.378846e-02 6.152705e-01 0.000000e+00  
 6.424241e-02 6.318316e-01 0.000000e+00  
 9.438284e-02 6.807852e-01 0.000000e+00  
 8.501498e-02 6.651143e-01 0.000000e+00  
 1.238821e-01 6.958948e-01 0.000000e+00  
 1.151192e-01 6.809906e-01 0.000000e+00  
 1.452845e-01 6.969525e-01 0.000000e+00  
 1.526068e-01 7.104016e-01 0.000000e+00  
 1.759094e-01 7.136011e-01 0.000000e+00  
 2.005766e-01 7.321039e-01 0.000000e+00  
 1.806180e-01 7.244718e-01 0.000000e+00  
 2.526810e-01 8.107385e-01 0.000000e+00  
 2.358804e-01 7.919588e-01 0.000000e+00  
 2.263408e-01 7.612739e-01 0.000000e+00  
 2.411831e-01 7.758260e-01 0.000000e+00  
 3.067953e-01 8.466596e-01 0.000000e+00  
 2.765108e-01 8.220502e-01 0.000000e+00  
 2.627586e-01 8.097615e-01 0.000000e+00  
 2.970274e-01 8.161914e-01 0.000000e+00  
 3.098948e-01 8.282152e-01 0.000000e+00  
 2.118268e-01 7.267263e-01 0.000000e+00  
 2.319897e-01 7.417092e-01 0.000000e+00  
 3.485316e-02 5.804032e-01 0.000000e+00  
 2.676335e-02 5.701199e-01 0.000000e+00  
 6.401434e-02 5.972763e-01 0.000000e+00  
 5.267761e-02 5.803744e-01 0.000000e+00  
 3.382503e-02 5.443682e-01 0.000000e+00  
 2.902133e-02 5.120260e-01 0.000000e+00  
 2.910513e-02 5.397342e-01 0.000000e+00  
 9.240000e-14 4.816994e-01 0.000000e+00  
 9.220000e-14 4.504378e-01 0.000000e+00  
 3.397142e-02 5.071638e-01 0.000000e+00  
 2.727105e-02 4.816798e-01 0.000000e+00  
 4.383510e-01 9.666478e-01 0.000000e+00  
 4.423936e-01 9.706757e-01 0.000000e+00  
 4.695468e-01 9.709787e-01 0.000000e+00  
[...]
 POINT_DATA 2002 
 VECTORS Displacement float 
 2.000000e-01 6.000000e-02 0.000000e+00  
 1.870887e-01 5.612660e-02 0.000000e+00  
 1.915474e-01 6.407400e-02 0.000000e+00  
 2.029881e-01 6.854755e-02 0.000000e+00  
 1.755458e-01 5.266374e-02 0.000000e+00  
 1.776063e-01 5.787707e-02 0.000000e+00  
 1.900323e-01 6.515939e-02 0.000000e+00  
 1.854943e-01 6.377240e-02 0.000000e+00  
 1.970341e-01 7.381325e-02 0.000000e+00  
 2.063005e-01 7.777645e-02 0.000000e+00  
 2.100852e-01 8.805363e-02 0.000000e+00  
 1.621604e-01 4.864811e-02 0.000000e+00  
 1.715154e-01 5.779074e-02 0.000000e+00  
 1.655237e-01 5.419915e-02 0.000000e+00  
 1.831107e-01 6.797907e-02 0.000000e+00  
 1.750031e-01 6.364676e-02 0.000000e+00  
 1.869439e-01 7.250071e-02 0.000000e+00  
 1.951574e-01 7.640503e-02 0.000000e+00  
 2.003495e-01 8.325437e-02 0.000000e+00  
 1.502943e-01 4.508828e-02 0.000000e+00  
 1.988756e-01 8.623581e-02 0.000000e+00  
 2.047894e-01 9.373875e-02 0.000000e+00  
 2.140342e-01 9.851958e-02 0.000000e+00  
 1.604569e-01 5.440307e-02 0.000000e+00  
 1.533385e-01 5.016548e-02 0.000000e+00  
 1.715445e-01 6.453183e-02 0.000000e+00  
 1.625830e-01 5.856869e-02 0.000000e+00  
 1.855639e-01 7.592900e-02 0.000000e+00  
 1.802740e-01 7.398745e-02 0.000000e+00  
 1.727518e-01 6.736871e-02 0.000000e+00  
 1.922367e-01 8.322023e-02 0.000000e+00  
 1.387724e-01 4.163172e-02 0.000000e+00  
 1.485267e-01 5.031877e-02 0.000000e+00  
 1.420321e-01 4.666266e-02 0.000000e+00  
 2.182941e-01 1.095586e-01 0.000000e+00  
 1.908408e-01 8.692443e-02 0.000000e+00  
 1.956349e-01 9.298543e-02 0.000000e+00  
 2.034466e-01 9.719328e-02 0.000000e+00  
 2.087331e-01 1.041997e-01 0.000000e+00  
 1.580432e-01 5.905534e-02 0.000000e+00  
 1.514341e-01 5.505474e-02 0.000000e+00  
 1.824910e-01 8.246632e-02 0.000000e+00  
 1.613449e-01 6.432797e-02 0.000000e+00  
 1.669478e-01 6.799620e-02 0.000000e+00  
 1.708867e-01 7.367857e-02 0.000000e+00  
 1.791407e-01 7.843972e-02 0.000000e+00  
 2.227001e-01 1.207416e-01 0.000000e+00  
 1.279523e-01 3.838568e-02 0.000000e+00  
 1.376118e-01 4.673442e-02 0.000000e+00  
 1.311349e-01 4.317856e-02 0.000000e+00  
 1.403776e-01 5.127298e-02 0.000000e+00  
 1.471113e-01 5.526248e-02 0.000000e+00  
 2.076104e-01 1.077962e-01 0.000000e+00  
 2.130410e-01 1.151045e-01 0.000000e+00  
 1.816970e-01 8.618276e-02 0.000000e+00  
 1.865816e-01 9.237397e-02 0.000000e+00  
 1.945110e-01 9.651886e-02 0.000000e+00  
 1.998608e-01 1.034779e-01 0.000000e+00  
 1.501679e-01 6.051488e-02 0.000000e+00  
 1.567884e-01 6.466475e-02 0.000000e+00  
 1.605171e-01 7.087115e-02 0.000000e+00  
 1.726006e-01 8.168478e-02 0.000000e+00  
 1.682548e-01 7.551789e-02 0.000000e+00  
 2.120895e-01 1.188505e-01 0.000000e+00  
 2.176062e-01 1.263379e-01 0.000000e+00  
 2.273209e-01 1.322478e-01 0.000000e+00  
 1.175701e-01 3.527103e-02 0.000000e+00  
 1.269887e-01 4.320021e-02 0.000000e+00  
 1.206339e-01 3.973865e-02 0.000000e+00  
 1.295008e-01 4.731612e-02 0.000000e+00  
 1.363157e-01 5.139789e-02 0.000000e+00  
 1.462182e-01 6.070664e-02 0.000000e+00  
 1.387185e-01 5.576109e-02 0.000000e+00  
 2.043828e-01 1.143679e-01 0.000000e+00  
 1.987710e-01 1.070133e-01 0.000000e+00  
 1.716853e-01 8.368482e-02 0.000000e+00  
 1.787387e-01 9.222936e-02 0.000000e+00  
 1.855869e-01 9.553642e-02 0.000000e+00  
 1.915564e-01 1.030447e-01 0.000000e+00  
 1.571422e-01 7.162744e-02 0.000000e+00  
 1.482516e-01 6.503400e-02 0.000000e+00  
 1.583193e-01 7.439685e-02 0.000000e+00  
 1.658714e-01 8.152179e-02 0.000000e+00  
 2.321454e-01 1.440506e-01 0.000000e+00  
 2.034609e-01 1.181531e-01 0.000000e+00  
 2.089583e-01 1.254868e-01 0.000000e+00  
 2.168077e-01 1.302985e-01 0.000000e+00  
 2.222708e-01 1.377884e-01 0.000000e+00  
 2.371200e-01 1.560227e-01 0.000000e+00  
 1.075955e-01 3.227865e-02 0.000000e+00  
 1.166136e-01 3.971755e-02 0.000000e+00  
 1.105837e-01 3.646597e-02 0.000000e+00  
 1.254434e-01 4.735979e-02 0.000000e+00  
 1.191045e-01 4.360518e-02 0.000000e+00  
 1.346247e-01 5.591238e-02 0.000000e+00  
 1.279679e-01 5.162702e-02 0.000000e+00  
 1.441122e-01 6.524186e-02 0.000000e+00  
 1.372093e-01 6.049019e-02 0.000000e+00  
 1.903218e-01 1.064867e-01 0.000000e+00  
 1.959162e-01 1.137145e-01 0.000000e+00  
 1.655505e-01 8.541357e-02 0.000000e+00  
 1.707927e-01 9.154561e-02 0.000000e+00  
 1.774672e-01 9.496185e-02 0.000000e+00  
 1.835528e-01 1.026071e-01 0.000000e+00  
 1.470858e-01 7.068337e-02 0.000000e+00  
 1.527222e-01 7.477940e-02 0.000000e+00  
 1.571184e-01 8.130623e-02 0.000000e+00  
 2.422190e-01 1.681106e-01 0.000000e+00  
 2.474311e-01 1.802956e-01 0.000000e+00  
 2.216483e-01 1.420251e-01 0.000000e+00  
 2.269563e-01 1.493640e-01 0.000000e+00  
 1.950156e-01 1.174771e-01 0.000000e+00  
 2.005884e-01 1.248175e-01 0.000000e+00  
 2.082010e-01 1.295101e-01 0.000000e+00  
 2.136527e-01 1.368586e-01 0.000000e+00  
 2.266423e-01 1.539062e-01 0.000000e+00  
 2.318185e-01 1.611161e-01 0.000000e+00  
 9.807836e-02 2.942351e-02 0.000000e+00  
 8.901995e-02 2.670599e-02 0.000000e+00  
 1.066872e-01 3.639822e-02 0.000000e+00  
 1.009629e-01 3.332934e-02 0.000000e+00  
 1.151128e-01 4.357916e-02 0.000000e+00  
 1.090690e-01 4.000318e-02 0.000000e+00  
 1.174643e-01 4.747590e-02 0.000000e+00  
 1.238898e-01 5.165010e-02 0.000000e+00  
 1.261038e-01 5.566606e-02 0.000000e+00  
 1.331075e-01 6.067520e-02 0.000000e+00  
 1.427795e-01 7.051509e-02 0.000000e+00  
 1.349383e-01 6.429413e-02 0.000000e+00  
 1.564209e-01 8.252624e-02 0.000000e+00  
 1.819375e-01 1.058347e-01 0.000000e+00  
 1.875877e-01 1.130755e-01 0.000000e+00  
 1.630912e-01 9.132935e-02 0.000000e+00  
 1.698495e-01 9.465500e-02 0.000000e+00  
 1.760490e-01 1.022572e-01 0.000000e+00  
 1.499463e-01 7.993167e-02 0.000000e+00  
 1.441325e-01 7.442028e-02 0.000000e+00  
 8.043604e-02 2.413081e-02 0.000000e+00  
 2.528262e-01 1.927462e-01 0.000000e+00  
 2.317801e-01 1.659160e-01 0.000000e+00  
 2.370087e-01 1.731755e-01 0.000000e+00  
 2.372421e-01 1.782879e-01 0.000000e+00  
 2.426443e-01 1.856190e-01 0.000000e+00  
 2.181718e-01 1.482775e-01 0.000000e+00  
 2.130153e-01 1.412776e-01 0.000000e+00  
 1.867966e-01 1.167236e-01 0.000000e+00  
 2.054691e-01 1.362596e-01 0.000000e+00  
 1.924785e-01 1.242533e-01 0.000000e+00  
 1.998154e-01 1.287512e-01 0.000000e+00  
 2.180430e-01 1.530972e-01 0.000000e+00  
 2.232274e-01 1.601823e-01 0.000000e+00  
 9.717146e-02 3.321020e-02 0.000000e+00  
 9.180704e-02 3.034994e-02 0.000000e+00  
 8.810115e-02 3.017435e-02 0.000000e+00  
 8.313135e-02 2.752176e-02 0.000000e+00  
 1.051445e-01 3.991379e-02 0.000000e+00  
 9.949101e-02 3.659778e-02 0.000000e+00  
 1.133578e-01 4.740102e-02 0.000000e+00  
 1.075121e-01 4.364804e-02 0.000000e+00  
 1.217678e-01 5.562548e-02 0.000000e+00  
 1.157201e-01 5.137024e-02 0.000000e+00  
 1.239987e-01 5.958813e-02 0.000000e+00  
 1.304260e-01 6.458723e-02 0.000000e+00  
 1.383718e-01 7.305450e-02 0.000000e+00  
 1.320781e-01 6.757551e-02 0.000000e+00  
 1.621234e-01 9.283057e-02 0.000000e+00  
 1.505650e-01 8.452613e-02 0.000000e+00  
 1.554489e-01 8.968711e-02 0.000000e+00  
 1.737269e-01 1.052821e-01 0.000000e+00  
 1.788663e-01 1.120179e-01 0.000000e+00  
 1.685246e-01 1.016880e-01 0.000000e+00  
 1.784679e-01 1.154890e-01 0.000000e+00  
 1.436758e-01 8.143298e-02 0.000000e+00  
 1.399094e-01 7.757440e-02 0.000000e+00  
 7.237940e-02 2.171382e-02 0.000000e+00  
 7.936320e-02 2.726270e-02 0.000000e+00  
 7.501626e-02 2.490077e-02 0.000000e+00  
 6.499140e-02 1.949742e-02 0.000000e+00  
 5.849526e-02 1.754858e-02 0.000000e+00  
 5.218427e-02 1.565528e-02 0.000000e+00  
 2.583045e-01 2.052365e-01 0.000000e+00  
 2.636334e-01 2.172536e-01 0.000000e+00  
 2.692546e-01 2.298007e-01 0.000000e+00  
 2.748251e-01 2.421151e-01 0.000000e+00  
 2.432033e-01 1.917170e-01 0.000000e+00  
 2.479037e-01 1.978092e-01 0.000000e+00  
 2.233305e-01 1.650477e-01 0.000000e+00  
 2.291316e-01 1.729412e-01 0.000000e+00  
 2.362712e-01 1.869174e-01 0.000000e+00  
 2.292881e-01 1.775470e-01 0.000000e+00  
 2.096561e-01 1.475232e-01 0.000000e+00  
 2.045123e-01 1.407465e-01 0.000000e+00  
 1.853219e-01 1.241661e-01 0.000000e+00  
 1.916484e-01 1.277327e-01 0.000000e+00  
 1.984120e-01 1.364973e-01 0.000000e+00  
 2.099408e-01 1.528880e-01 0.000000e+00  
 2.151562e-01 1.597588e-01 0.000000e+00  
 2.809677e-01 2.555684e-01 0.000000e+00  
 9.572338e-02 3.645896e-02 0.000000e+00  
 9.030085e-02 3.330813e-02 0.000000e+00  
 8.136864e-02 3.002291e-02 0.000000e+00  
 8.676413e-02 3.316761e-02 0.000000e+00  
 1.035194e-01 4.348449e-02 0.000000e+00  
 9.804641e-02 4.004235e-02 0.000000e+00  
 1.114257e-01 5.117712e-02 0.000000e+00  
 1.060783e-01 4.757433e-02 0.000000e+00  
 1.144011e-01 5.592303e-02 0.000000e+00  
 1.192865e-01 5.936312e-02 0.000000e+00  
 1.232366e-01 6.527280e-02 0.000000e+00  
 1.320953e-01 7.419987e-02 0.000000e+00  
 1.271285e-01 6.800122e-02 0.000000e+00  
 1.645119e-01 1.025037e-01 0.000000e+00  
 1.559404e-01 9.399574e-02 0.000000e+00  
 1.447064e-01 8.588232e-02 0.000000e+00  
 1.514176e-01 9.262881e-02 0.000000e+00  
 1.846522e-01 1.271878e-01 0.000000e+00  
 1.717505e-01 1.121510e-01 0.000000e+00  
 1.656238e-01 1.054048e-01 0.000000e+00  
 1.727794e-01 1.175209e-01 0.000000e+00  
 1.787724e-01 1.242470e-01 0.000000e+00  
 1.319551e-01 7.626273e-02 0.000000e+00  
 1.393184e-01 8.412026e-02 0.000000e+00  
 7.083602e-02 2.440999e-02 0.000000e+00  
 6.762889e-02 2.259008e-02 0.000000e+00  
 7.798488e-02 2.995613e-02 0.000000e+00  
 7.267983e-02 2.684393e-02 0.000000e+00  
 6.246392e-02 2.151185e-02 0.000000e+00  
 5.505715e-02 1.866054e-02 0.000000e+00  
 6.097631e-02 2.060216e-02 0.000000e+00  
 4.640686e-02 1.392206e-02 0.000000e+00  
 4.057884e-02 1.217365e-02 0.000000e+00  
 5.448418e-02 1.885209e-02 0.000000e+00  
 4.876457e-02 1.647567e-02 0.000000e+00  
 2.500907e-01 2.064744e-01 0.000000e+00  
 2.523766e-01 2.092693e-01 0.000000e+00  
 2.575962e-01 2.207630e-01 0.000000e+00  
 2.566751e-01 2.213950e-01 0.000000e+00  
 2.636607e-01 2.336951e-01 0.000000e+00  
 2.627559e-01 2.354636e-01 0.000000e+00  
 2.701267e-01 2.472919e-01 0.000000e+00  
 2.430536e-01 2.013721e-01 0.000000e+00  
 2.356476e-01 1.913786e-01 0.000000e+00  
 2.219241e-01 1.731380e-01 0.000000e+00  
 2.157272e-01 1.651232e-01 0.000000e+00  
 2.296736e-01 1.872348e-01 0.000000e+00  
 2.226233e-01 1.778273e-01 0.000000e+00  
 2.017652e-01 1.475655e-01 0.000000e+00  
 1.960233e-01 1.403317e-01 0.000000e+00  
 1.930809e-01 1.381145e-01 0.000000e+00  
 2.027861e-01 1.539763e-01 0.000000e+00  
 2.085520e-01 1.607893e-01 0.000000e+00  
 2.875450e-01 2.698397e-01 0.000000e+00  
 2.693704e-01 2.500689e-01 0.000000e+00  
 2.768498e-01 2.615573e-01 0.000000e+00  
 8.876975e-02 3.631753e-02 0.000000e+00  
 9.435642e-02 3.983965e-02 0.000000e+00  
 7.974683e-02 3.259250e-02 0.000000e+00  
 8.537341e-02 3.613877e-02 0.000000e+00  
 1.021403e-01 4.731771e-02 0.000000e+00  
 9.648069e-02 4.344734e-02 0.000000e+00  
 1.043234e-01 5.121133e-02 0.000000e+00  
 1.103060e-01 5.564705e-02 0.000000e+00  
 1.191201e-01 6.503267e-02 0.000000e+00  
 1.123403e-01 5.962166e-02 0.000000e+00  
 1.271930e-01 7.472099e-02 0.000000e+00  
 1.208823e-01 6.905105e-02 0.000000e+00  
 1.522134e-01 9.652194e-02 0.000000e+00  
 1.593256e-01 1.040676e-01 0.000000e+00  
 1.396255e-01 8.714529e-02 0.000000e+00  
 1.470772e-01 9.492405e-02 0.000000e+00  
 1.883458e-01 1.387445e-01 0.000000e+00  
 1.797292e-01 1.295469e-01 0.000000e+00  
 1.667348e-01 1.147454e-01 0.000000e+00  
 1.605985e-01 1.080715e-01 0.000000e+00  
 1.753047e-01 1.279688e-01 0.000000e+00  
 1.680278e-01 1.201319e-01 0.000000e+00  
 1.283202e-01 7.920447e-02 0.000000e+00  
 1.351683e-01 8.573912e-02 0.000000e+00  
 6.417968e-02 2.375211e-02 0.000000e+00  
 6.947311e-02 2.686694e-02 0.000000e+00  
 7.656193e-02 3.257449e-02 0.000000e+00  
 7.106658e-02 2.912811e-02 0.000000e+00  
 6.131846e-02 2.385342e-02 0.000000e+00  
 5.638928e-02 2.108445e-02 0.000000e+00  
 3.497252e-02 1.049176e-02 0.000000e+00  
 2.969933e-02 8.909798e-03 0.000000e+00  
 4.748964e-02 1.660206e-02 0.000000e+00  
 4.274599e-02 1.445394e-02 0.000000e+00  
 4.110299e-02 1.447090e-02 0.000000e+00  
 3.699838e-02 1.255362e-02 0.000000e+00  
 4.930257e-02 1.873851e-02 0.000000e+00  
 5.393934e-02 2.125028e-02 0.000000e+00  
 2.480794e-02 7.442383e-03 0.000000e+00  
 2.032987e-02 6.098961e-03 0.000000e+00  
 2.944955e-01 2.847829e-01 0.000000e+00  
 3.017627e-01 3.002685e-01 0.000000e+00  
 3.092968e-01 3.161864e-01 0.000000e+00  
 2.485434e-01 2.150025e-01 0.000000e+00  
 2.421359e-01 2.056241e-01 0.000000e+00  
 2.474915e-01 2.186499e-01 0.000000e+00  
 2.546072e-01 2.292476e-01 0.000000e+00  
 2.611750e-01 2.437600e-01 0.000000e+00  
 2.538004e-01 2.326790e-01 0.000000e+00  
 2.341021e-01 1.992715e-01 0.000000e+00  
 2.288773e-01 1.913149e-01 0.000000e+00  
 2.106799e-01 1.690711e-01 0.000000e+00  
 2.148012e-01 1.736419e-01 0.000000e+00  
 2.198542e-01 1.838837e-01 0.000000e+00  
 1.965634e-01 1.504779e-01 0.000000e+00  
 1.901638e-01 1.431394e-01 0.000000e+00  
 2.057475e-01 1.661324e-01 0.000000e+00  
 1.979247e-01 1.569022e-01 0.000000e+00  
 2.762494e-01 2.650325e-01 0.000000e+00  
 2.838142e-01 2.763934e-01 0.000000e+00  
 2.604645e-01 2.472407e-01 0.000000e+00  
 2.680329e-01 2.586012e-01 0.000000e+00  
 9.278186e-02 4.312799e-02 0.000000e+00  
 8.719918e-02 3.932288e-02 0.000000e+00  
 7.823053e-02 3.520382e-02 0.000000e+00  
 8.390973e-02 3.902517e-02 0.000000e+00  
 9.476426e-02 4.675070e-02 0.000000e+00  
 1.002226e-01 5.084528e-02 0.000000e+00  
 1.081563e-01 5.931760e-02 0.000000e+00  
 1.021203e-01 5.436015e-02 0.000000e+00  
 1.160902e-01 6.818569e-02 0.000000e+00  
 1.097476e-01 6.261839e-02 0.000000e+00  
 1.239120e-01 7.784838e-02 0.000000e+00  
 1.176716e-01 7.205883e-02 0.000000e+00  
 1.478140e-01 9.873130e-02 0.000000e+00  
 1.548932e-01 1.062193e-01 0.000000e+00  
 1.361466e-01 9.009412e-02 0.000000e+00  
 1.431969e-01 9.718467e-02 0.000000e+00  
 1.766024e-01 1.331486e-01 0.000000e+00  
 1.837212e-01 1.412432e-01 0.000000e+00  
 1.630616e-01 1.181973e-01 0.000000e+00  
 1.561423e-01 1.108122e-01 0.000000e+00  
 1.713069e-01 1.310172e-01 0.000000e+00  
 1.644572e-01 1.235562e-01 0.000000e+00  
 1.318515e-01 8.867270e-02 0.000000e+00  
 1.252413e-01 8.221874e-02 0.000000e+00  
 6.811820e-02 2.919444e-02 0.000000e+00  
 6.311489e-02 2.616501e-02 0.000000e+00  
 7.000876e-02 3.182998e-02 0.000000e+00  
 7.521493e-02 3.522138e-02 0.000000e+00  
 6.044969e-02 2.625207e-02 0.000000e+00  
 5.587209e-02 2.358626e-02 0.000000e+00  
 3.524879e-02 1.250099e-02 0.000000e+00  
 3.159179e-02 1.077491e-02 0.000000e+00  
 2.987616e-02 1.068511e-02 0.000000e+00  
 2.656492e-02 9.117967e-03 0.000000e+00  
 4.718285e-02 1.880920e-02 0.000000e+00  
 4.285794e-02 1.650618e-02 0.000000e+00  
 3.693229e-02 1.440408e-02 0.000000e+00  
 4.092591e-02 1.651727e-02 0.000000e+00  
 5.356342e-02 2.370501e-02 0.000000e+00  
 4.906560e-02 2.111297e-02 0.000000e+00  
 2.494622e-02 9.014158e-03 0.000000e+00  
 2.194214e-02 7.592223e-03 0.000000e+00  
 1.626754e-02 4.880262e-03 0.000000e+00  
 2.045651e-02 7.482934e-03 0.000000e+00  
 1.773347e-02 6.193002e-03 0.000000e+00  
 3.170662e-01 3.324674e-01 0.000000e+00  
 3.250279e-01 3.490221e-01 0.000000e+00  
 2.833456e-01 2.803640e-01 0.000000e+00  
 2.909789e-01 2.916909e-01 0.000000e+00  
 2.906436e-01 2.960478e-01 0.000000e+00  
 2.983191e-01 3.073644e-01 0.000000e+00  
 2.981363e-01 3.120474e-01 0.000000e+00  
 3.058318e-01 3.233548e-01 0.000000e+00  
 2.397899e-01 2.126801e-01 0.000000e+00  
 2.331408e-01 2.026666e-01 0.000000e+00  
 2.388812e-01 2.159532e-01 0.000000e+00  
 2.459399e-01 2.266405e-01 0.000000e+00  
 2.451565e-01 2.298643e-01 0.000000e+00  
 2.526317e-01 2.411603e-01 0.000000e+00  
 2.179401e-01 1.848668e-01 0.000000e+00  
 2.256060e-01 1.968729e-01 0.000000e+00  
 2.054802e-01 1.713540e-01 0.000000e+00  
 2.126194e-01 1.807480e-01 0.000000e+00  
 1.918464e-01 1.538443e-01 0.000000e+00  
 1.854878e-01 1.463207e-01 0.000000e+00  
 1.996583e-01 1.673319e-01 0.000000e+00  
 1.932395e-01 1.591301e-01 0.000000e+00  
 2.673813e-01 2.622818e-01 0.000000e+00  
 2.750561e-01 2.737566e-01 0.000000e+00  
 2.518530e-01 2.444919e-01 0.000000e+00  
 2.595520e-01 2.560770e-01 0.000000e+00  
 9.071951e-02 4.614227e-02 0.000000e+00  
 8.562724e-02 4.237936e-02 0.000000e+00  
 8.235672e-02 4.177573e-02 0.000000e+00  
 7.706360e-02 3.804904e-02 0.000000e+00  
 9.267450e-02 4.980255e-02 0.000000e+00  
 9.742536e-02 5.386182e-02 0.000000e+00  
 9.880820e-02 5.645555e-02 0.000000e+00  
 1.054175e-01 6.222498e-02 0.000000e+00  
 1.131568e-01 7.109339e-02 0.000000e+00  
 1.068080e-01 6.529215e-02 0.000000e+00  
 1.208879e-01 8.089735e-02 0.000000e+00  
 1.146314e-01 7.490318e-02 0.000000e+00  
 1.442516e-01 1.017333e-01 0.000000e+00  
 1.512859e-01 1.091071e-01 0.000000e+00  
 1.330108e-01 9.310988e-02 0.000000e+00  
 1.398381e-01 1.001201e-01 0.000000e+00  
 1.731512e-01 1.372057e-01 0.000000e+00  
 1.790831e-01 1.436964e-01 0.000000e+00  
 1.596288e-01 1.216304e-01 0.000000e+00  
 1.525338e-01 1.138862e-01 0.000000e+00  
 1.683319e-01 1.350459e-01 0.000000e+00  
 1.608014e-01 1.265105e-01 0.000000e+00  
 1.222512e-01 8.510539e-02 0.000000e+00  
 1.286667e-01 9.160162e-02 0.000000e+00  
 6.724057e-02 3.192239e-02 0.000000e+00  
 6.270605e-02 2.913916e-02 0.000000e+00  
 6.993192e-02 3.544324e-02 0.000000e+00  
 7.428178e-02 3.814877e-02 0.000000e+00  
 5.567390e-02 2.640753e-02 0.000000e+00  
 6.032886e-02 2.925445e-02 0.000000e+00  
 3.513046e-02 1.438239e-02 0.000000e+00  
 3.146620e-02 1.244561e-02 0.000000e+00  
 2.979439e-02 1.239641e-02 0.000000e+00  
 2.642775e-02 1.061387e-02 0.000000e+00  
 4.273639e-02 1.872552e-02 0.000000e+00  
 4.702435e-02 2.118802e-02 0.000000e+00  
 3.685844e-02 1.645165e-02 0.000000e+00  
 4.087498e-02 1.876164e-02 0.000000e+00  
 5.357061e-02 2.653806e-02 0.000000e+00  
 4.900806e-02 2.374366e-02 0.000000e+00  
 2.181248e-02 8.927833e-03 0.000000e+00  
 2.488419e-02 1.055977e-02 0.000000e+00  
 1.264190e-02 3.792569e-03 0.000000e+00  
 1.637907e-02 6.088575e-03 0.000000e+00  
 1.397589e-02 4.947810e-03 0.000000e+00  
 1.761240e-02 7.361060e-03 0.000000e+00  
 2.041865e-02 8.862326e-03 0.000000e+00  
 9.485136e-03 2.845541e-03 0.000000e+00  
 3.331563e-01 3.657988e-01 0.000000e+00  
 3.414218e-01 3.827391e-01 0.000000e+00  
 3.058022e-01 3.283476e-01 0.000000e+00  
 3.134581e-01 3.395740e-01 0.000000e+00  
 3.136364e-01 3.448888e-01 0.000000e+00  
 3.212529e-01 3.560273e-01 0.000000e+00  
 4.000000e-01 5.000000e-01 0.000000e+00  
 2.744854e-01 2.777202e-01 0.000000e+00  
 2.821959e-01 2.892038e-01 0.000000e+00  
 2.894341e-01 3.049106e-01 0.000000e+00  
 2.817507e-01 2.934917e-01 0.000000e+00  
 2.968259e-01 3.208869e-01 0.000000e+00  
 2.891684e-01 3.095129e-01 0.000000e+00  
 2.310476e-01 2.099097e-01 0.000000e+00  
 2.241260e-01 1.992719e-01 0.000000e+00  
 2.301569e-01 2.128376e-01 0.000000e+00  
 2.374710e-01 2.239779e-01 0.000000e+00  
 2.366764e-01 2.270018e-01 0.000000e+00  
 2.443740e-01 2.386442e-01 0.000000e+00  
 2.169991e-01 1.935666e-01 0.000000e+00  
 2.109354e-01 1.847067e-01 0.000000e+00  
 2.036303e-01 1.785856e-01 0.000000e+00  
 1.992576e-01 1.721329e-01 0.000000e+00  
 1.825118e-01 1.519193e-01 0.000000e+00  
 1.856119e-01 1.552901e-01 0.000000e+00  
 1.907714e-01 1.649005e-01 0.000000e+00  
 2.665683e-01 2.713083e-01 0.000000e+00  
 2.587833e-01 2.596421e-01 0.000000e+00  
 2.513802e-01 2.536902e-01 0.000000e+00  
 2.434978e-01 2.418464e-01 0.000000e+00  
 8.681289e-02 4.821043e-02 0.000000e+00  
 8.417776e-02 4.582896e-02 0.000000e+00  
 7.783590e-02 4.273536e-02 0.000000e+00  
 8.825381e-02 5.089665e-02 0.000000e+00  
 9.489634e-02 5.663920e-02 0.000000e+00  
 9.609388e-02 5.888413e-02 0.000000e+00  
 1.027361e-01 6.481648e-02 0.000000e+00  
 1.041816e-01 6.808542e-02 0.000000e+00  
 1.103980e-01 7.388865e-02 0.000000e+00  
 1.119059e-01 7.778352e-02 0.000000e+00  