# vtk DataFile Version 1.0 
PolyMesh 
ASCII 
 
DATASET POLYDATA 
 
POINTS 502 float 
1.000000e+00 -6.275300e-12 0.000000e+00  
 9.397129e-01 -4.681200e-12 0.000000e+00  
 1.000000e+00 7.565740e-02 0.000000e+00  
 9.579277e-01 7.780414e-02 0.000000e+00  
 9.320532e-01 5.432883e-02 0.000000e+00  
 8.941708e-01 6.456681e-02 0.000000e+00  
 8.646178e-01 3.980076e-02 0.000000e+00  
 8.644959e-01 -4.718900e-12 0.000000e+00  
 1.000000e+00 1.550885e-01 0.000000e+00  
 9.352616e-01 1.283480e-01 0.000000e+00  
 9.549683e-01 1.539868e-01 0.000000e+00  
 8.940690e-01 1.257403e-01 0.000000e+00  
 8.830542e-01 1.100449e-01 0.000000e+00  
 8.328519e-01 1.059265e-01 0.000000e+00  
 8.227433e-01 6.629651e-02 0.000000e+00  
 7.956652e-01 5.333762e-02 0.000000e+00  
 7.934179e-01 -4.718900e-12 0.000000e+00  
 1.000000e+00 2.285058e-01 0.000000e+00  
 9.316885e-01 1.975910e-01 0.000000e+00  
 9.532736e-01 2.281729e-01 0.000000e+00  
 7.276505e-01 -5.186800e-12 0.000000e+00  
 8.947294e-01 1.969454e-01 0.000000e+00  
 8.758039e-01 1.713850e-01 0.000000e+00  
 8.126625e-01 1.329009e-01 0.000000e+00  
 8.381964e-01 1.718534e-01 0.000000e+00  
 7.914622e-01 1.340305e-01 0.000000e+00  
 7.628852e-01 7.133677e-02 0.000000e+00  
 7.589901e-01 1.032175e-01 0.000000e+00  
 7.264258e-01 4.692584e-02 0.000000e+00  
 1.000000e+00 3.001974e-01 0.000000e+00  
 1.000000e+00 3.705273e-01 0.000000e+00  
 1.000000e+00 4.414596e-01 0.000000e+00  
 1.000000e+00 5.136199e-01 0.000000e+00  
 9.311535e-01 2.680325e-01 0.000000e+00  
 9.510866e-01 2.998680e-01 0.000000e+00  
 8.743945e-01 2.401246e-01 0.000000e+00  
 8.907618e-01 2.666732e-01 0.000000e+00  
 6.578031e-01 -5.067400e-12 0.000000e+00  
 6.904962e-01 6.787044e-02 0.000000e+00  
 6.586072e-01 4.974963e-02 0.000000e+00  
 8.155694e-01 2.102196e-01 0.000000e+00  
 8.297152e-01 2.368097e-01 0.000000e+00  
 7.748200e-01 2.035949e-01 0.000000e+00  
 7.623760e-01 1.777442e-01 0.000000e+00  
 6.927510e-01 1.086359e-01 0.000000e+00  
 7.240814e-01 1.676385e-01 0.000000e+00  
 7.186250e-01 1.227816e-01 0.000000e+00  
 5.906659e-01 -5.085200e-12 0.000000e+00  
 9.304192e-01 3.364883e-01 0.000000e+00  
 9.514018e-01 3.707695e-01 0.000000e+00  
 1.000000e+00 5.868265e-01 0.000000e+00  
 9.306665e-01 4.060492e-01 0.000000e+00  
 9.534312e-01 4.419136e-01 0.000000e+00  
 9.314930e-01 4.773793e-01 0.000000e+00  
 9.554670e-01 5.139084e-01 0.000000e+00  
 9.319666e-01 5.499721e-01 0.000000e+00  
 9.562803e-01 5.864690e-01 0.000000e+00  
 8.714765e-01 3.049560e-01 0.000000e+00  
 8.906574e-01 3.367806e-01 0.000000e+00  
 8.273855e-01 3.049661e-01 0.000000e+00  
 8.108723e-01 2.739098e-01 0.000000e+00  
 5.232523e-01 -5.085200e-12 0.000000e+00  
 6.243822e-01 6.935787e-02 0.000000e+00  
 5.907464e-01 5.102398e-02 0.000000e+00  
 6.578470e-01 1.278431e-01 0.000000e+00  
 6.252460e-01 1.113509e-01 0.000000e+00  
 7.488977e-01 2.428588e-01 0.000000e+00  
 7.613770e-01 2.718440e-01 0.000000e+00  
 7.050355e-01 2.324286e-01 0.000000e+00  
 7.001564e-01 1.865005e-01 0.000000e+00  
 6.597299e-01 1.731880e-01 0.000000e+00  
 5.581172e-01 6.969108e-02 0.000000e+00  
 5.230965e-01 5.027273e-02 0.000000e+00  
 4.551246e-01 -5.050000e-12 0.000000e+00  
 3.866544e-01 -5.031000e-12 0.000000e+00  
 1.000000e+00 6.590675e-01 0.000000e+00  
 1.000000e+00 7.284461e-01 0.000000e+00  
 1.000000e+00 7.950938e-01 0.000000e+00  
 8.943378e-01 4.072266e-01 0.000000e+00  
 8.715287e-01 3.722440e-01 0.000000e+00  
 9.307270e-01 6.243845e-01 0.000000e+00  
 9.532188e-01 6.583600e-01 0.000000e+00  
 8.740279e-01 4.428995e-01 0.000000e+00  
 8.979699e-01 4.783914e-01 0.000000e+00  
 8.765236e-01 5.141953e-01 0.000000e+00  
 9.007539e-01 5.503884e-01 0.000000e+00  
 8.774133e-01 5.862975e-01 0.000000e+00  
 9.023890e-01 6.232351e-01 0.000000e+00  
 8.099856e-01 3.384826e-01 0.000000e+00  
 8.339343e-01 3.744685e-01 0.000000e+00  
 7.449430e-01 3.038746e-01 0.000000e+00  
 7.730923e-01 3.424252e-01 0.000000e+00  
 4.902012e-01 6.959637e-02 0.000000e+00  
 4.550422e-01 4.958745e-02 0.000000e+00  
 7.116193e-01 3.103552e-01 0.000000e+00  
 5.575740e-01 1.107631e-01 0.000000e+00  
 5.934512e-01 1.299419e-01 0.000000e+00  
 6.347128e-01 1.909397e-01 0.000000e+00  
 5.929900e-01 1.706469e-01 0.000000e+00  
 6.803649e-01 2.530618e-01 0.000000e+00  
 6.785511e-01 2.789984e-01 0.000000e+00  
 6.336452e-01 2.264437e-01 0.000000e+00  
 5.262832e-01 1.290498e-01 0.000000e+00  
 4.897928e-01 1.086482e-01 0.000000e+00  
 4.214091e-01 6.951238e-02 0.000000e+00  
 3.866105e-01 4.940745e-02 0.000000e+00  
 3.177031e-01 -5.180900e-12 0.000000e+00  
 3.523921e-01 6.953299e-02 0.000000e+00  
 3.183942e-01 4.949936e-02 0.000000e+00  
 2.507909e-01 -5.180900e-12 0.000000e+00  
 9.574400e-01 8.656749e-01 0.000000e+00  
 1.000000e+00 8.687258e-01 0.000000e+00  
 1.000000e+00 9.328180e-01 0.000000e+00  
 1.000000e+00 1.000000e+00 0.000000e+00  
 9.298869e-01 6.977685e-01 0.000000e+00  
 9.485962e-01 7.280837e-01 0.000000e+00  
 9.307086e-01 7.638315e-01 0.000000e+00  
 9.488836e-01 7.971992e-01 0.000000e+00  
 9.345880e-01 8.234514e-01 0.000000e+00  
 8.146492e-01 4.101595e-01 0.000000e+00  
 8.391024e-01 4.447487e-01 0.000000e+00  
 8.951091e-01 6.952736e-01 0.000000e+00  
 8.727997e-01 6.628370e-01 0.000000e+00  
 8.422938e-01 5.155560e-01 0.000000e+00  
 8.191099e-01 4.812741e-01 0.000000e+00  
 8.221526e-01 5.507566e-01 0.000000e+00  
 8.464121e-01 5.870835e-01 0.000000e+00  
 8.247310e-01 6.205751e-01 0.000000e+00  
 8.497154e-01 6.608591e-01 0.000000e+00  
 7.540258e-01 3.790433e-01 0.000000e+00  
 7.805058e-01 4.127003e-01 0.000000e+00  
 7.226812e-01 3.823573e-01 0.000000e+00  
 6.946816e-01 3.534942e-01 0.000000e+00  
 4.213361e-01 1.080477e-01 0.000000e+00  
 4.573581e-01 1.283467e-01 0.000000e+00  
 6.663864e-01 3.580907e-01 0.000000e+00  
 6.356703e-01 3.048686e-01 0.000000e+00  
 6.342209e-01 3.291540e-01 0.000000e+00  
 5.249342e-01 1.689333e-01 0.000000e+00  
 5.630021e-01 1.903059e-01 0.000000e+00  
 5.624469e-01 2.248363e-01 0.000000e+00  
 6.010517e-01 2.503547e-01 0.000000e+00  
 6.006565e-01 2.757511e-01 0.000000e+00  
 4.940516e-01 1.870338e-01 0.000000e+00  
 4.570882e-01 1.667144e-01 0.000000e+00  
 3.882912e-01 1.282666e-01 0.000000e+00  
 3.523223e-01 1.078811e-01 0.000000e+00  
 2.813637e-01 7.121280e-02 0.000000e+00  
 2.505516e-01 5.285429e-02 0.000000e+00  
 2.833909e-01 1.074040e-01 0.000000e+00  
 3.194843e-01 1.279971e-01 0.000000e+00  
 2.147097e-01 7.004766e-02 0.000000e+00  
 1.847271e-01 5.124468e-02 0.000000e+00  
 1.833419e-01 -5.431200e-12 0.000000e+00  
 1.203142e-01 -5.431100e-12 0.000000e+00  
 6.138300e-02 -4.795800e-12 0.000000e+00  
 -4.914500e-12 -4.795800e-12 0.000000e+00  
 8.939249e-01 8.307222e-01 0.000000e+00  
 9.281363e-01 8.971032e-01 0.000000e+00  
 8.841571e-01 8.735466e-01 0.000000e+00  
 9.316908e-01 9.284623e-01 0.000000e+00  
 9.423871e-01 9.370782e-01 0.000000e+00  
 9.435996e-01 1.000000e+00 0.000000e+00  
 8.670786e-01 7.418985e-01 0.000000e+00  
 8.817491e-01 7.636102e-01 0.000000e+00  
 8.696959e-01 8.061658e-01 0.000000e+00  
 7.823806e-01 4.828988e-01 0.000000e+00  
 7.605047e-01 4.518302e-01 0.000000e+00  
 8.375085e-01 7.364513e-01 0.000000e+00  
 8.171907e-01 6.948096e-01 0.000000e+00  
 7.932181e-01 6.907689e-01 0.000000e+00  
 7.868012e-01 5.528760e-01 0.000000e+00  
 7.635549e-01 5.205613e-01 0.000000e+00  
 7.688100e-01 5.882320e-01 0.000000e+00  
 7.897278e-01 6.220904e-01 0.000000e+00  
 7.731725e-01 6.507716e-01 0.000000e+00  
 7.225974e-01 4.526942e-01 0.000000e+00  
 7.032930e-01 4.262084e-01 0.000000e+00  
 6.611024e-01 4.256380e-01 0.000000e+00  
 6.468952e-01 4.026937e-01 0.000000e+00  
 3.882739e-01 1.664346e-01 0.000000e+00  
 4.251024e-01 1.868791e-01 0.000000e+00  
 6.023045e-01 3.966984e-01 0.000000e+00  
 5.954157e-01 3.528377e-01 0.000000e+00  
 5.642808e-01 3.380791e-01 0.000000e+00  
 5.601190e-01 3.031348e-01 0.000000e+00  
 4.926027e-01 2.288779e-01 0.000000e+00  
 5.258676e-01 2.480620e-01 0.000000e+00  
 5.284555e-01 2.844700e-01 0.000000e+00  
 4.250325e-01 2.235593e-01 0.000000e+00  
 4.616995e-01 2.447051e-01 0.000000e+00  
 3.189952e-01 1.668021e-01 0.000000e+00  
 3.558861e-01 1.867700e-01 0.000000e+00  
 2.913834e-01 1.838337e-01 0.000000e+00  
 2.126538e-01 1.159770e-01 0.000000e+00  
 2.462010e-01 1.333532e-01 0.000000e+00  
 2.514880e-01 1.673255e-01 0.000000e+00  
 1.867927e-01 1.285632e-01 0.000000e+00  
 1.401378e-01 7.415728e-02 0.000000e+00  
 1.426414e-01 1.023318e-01 0.000000e+00  
 1.202923e-01 5.936966e-02 0.000000e+00  
 7.239843e-02 6.955366e-02 0.000000e+00  
 5.794855e-02 5.492487e-02 0.000000e+00  
 -4.914500e-12 6.064779e-02 0.000000e+00  
 8.283681e-01 8.160539e-01 0.000000e+00  
 8.266424e-01 8.670689e-01 0.000000e+00  
 8.601285e-01 8.854327e-01 0.000000e+00  
 8.565240e-01 9.297994e-01 0.000000e+00  
 8.823463e-01 9.480456e-01 0.000000e+00  
 8.827332e-01 1.000000e+00 0.000000e+00  
 8.027643e-01 7.690858e-01 0.000000e+00  
 8.071310e-01 8.012241e-01 0.000000e+00  
 7.279342e-01 5.229897e-01 0.000000e+00  
 7.033067e-01 4.948278e-01 0.000000e+00  
 7.621001e-01 7.474600e-01 0.000000e+00  
 7.600554e-01 7.212628e-01 0.000000e+00  
 7.301514e-01 6.542404e-01 0.000000e+00  
 7.200405e-01 6.971725e-01 0.000000e+00  
 7.094157e-01 5.682882e-01 0.000000e+00  
 7.268234e-01 5.899567e-01 0.000000e+00  
 7.133006e-01 6.344463e-01 0.000000e+00  
 6.427258e-01 4.660497e-01 0.000000e+00  
 6.741053e-01 4.976480e-01 0.000000e+00  
 6.204425e-01 4.705935e-01 0.000000e+00  
 5.820064e-01 4.167809e-01 0.000000e+00  
 5.833122e-01 4.421761e-01 0.000000e+00  
 3.897323e-01 2.464778e-01 0.000000e+00  
 3.562514e-01 2.230900e-01 0.000000e+00  
 5.356617e-01 3.982692e-01 0.000000e+00  
 5.315993e-01 3.629519e-01 0.000000e+00  
 4.934779e-01 3.460837e-01 0.000000e+00  
 4.889078e-01 3.095490e-01 0.000000e+00  
 4.569713e-01 2.914069e-01 0.000000e+00  
 4.317533e-01 3.015804e-01 0.000000e+00  
 3.892995e-01 2.717935e-01 0.000000e+00  
[...]
 POINT_DATA 502 
 VECTORS Displacement float 
 1.000000e+00 1.000000e+00 0.000000e+00  
 9.397129e-01 9.397129e-01 0.000000e+00  
 1.000000e+00 1.075657e+00 0.000000e+00  
 9.579277e-01 1.035732e+00 0.000000e+00  
 9.320532e-01 9.863820e-01 0.000000e+00  
 8.941708e-01 9.587376e-01 0.000000e+00  
 8.646178e-01 9.044185e-01 0.000000e+00  
 8.644959e-01 8.644959e-01 0.000000e+00  
 1.000000e+00 1.155089e+00 0.000000e+00  
 9.352616e-01 1.063610e+00 0.000000e+00  
 9.549683e-01 1.108955e+00 0.000000e+00  
 8.940690e-01 1.019809e+00 0.000000e+00  
 8.830542e-01 9.930991e-01 0.000000e+00  
 8.328519e-01 9.387783e-01 0.000000e+00  
 8.227433e-01 8.890398e-01 0.000000e+00  
 7.956652e-01 8.490028e-01 0.000000e+00  
 7.934179e-01 7.934179e-01 0.000000e+00  
 1.000000e+00 1.228506e+00 0.000000e+00  
 9.316885e-01 1.129280e+00 0.000000e+00  
 9.532736e-01 1.181446e+00 0.000000e+00  
 7.276505e-01 7.276505e-01 0.000000e+00  
 8.947294e-01 1.091675e+00 0.000000e+00  
 8.758039e-01 1.047189e+00 0.000000e+00  
 8.126625e-01 9.455635e-01 0.000000e+00  
 8.381964e-01 1.010050e+00 0.000000e+00  
 7.914622e-01 9.254927e-01 0.000000e+00  
 7.628852e-01 8.342220e-01 0.000000e+00  
 7.589901e-01 8.622077e-01 0.000000e+00  
 7.264258e-01 7.733516e-01 0.000000e+00  
 1.000000e+00 1.300197e+00 0.000000e+00  
 1.000000e+00 1.370527e+00 0.000000e+00  
 1.000000e+00 1.441460e+00 0.000000e+00  
 1.000000e+00 1.513620e+00 0.000000e+00  
 9.311535e-01 1.199186e+00 0.000000e+00  
 9.510866e-01 1.250955e+00 0.000000e+00  
 8.743945e-01 1.114519e+00 0.000000e+00  
 8.907618e-01 1.157435e+00 0.000000e+00  
 6.578031e-01 6.578031e-01 0.000000e+00  
 6.904962e-01 7.583667e-01 0.000000e+00  
 6.586072e-01 7.083568e-01 0.000000e+00  
 8.155694e-01 1.025789e+00 0.000000e+00  
 8.297152e-01 1.066525e+00 0.000000e+00  
 7.748200e-01 9.784149e-01 0.000000e+00  
 7.623760e-01 9.401203e-01 0.000000e+00  
 6.927510e-01 8.013869e-01 0.000000e+00  
 7.240814e-01 8.917200e-01 0.000000e+00  
 7.186250e-01 8.414066e-01 0.000000e+00  
 5.906659e-01 5.906659e-01 0.000000e+00  
 9.304192e-01 1.266908e+00 0.000000e+00  
 9.514018e-01 1.322171e+00 0.000000e+00  
 1.000000e+00 1.586826e+00 0.000000e+00  
 9.306665e-01 1.336716e+00 0.000000e+00  
 9.534312e-01 1.395345e+00 0.000000e+00  
 9.314930e-01 1.408872e+00 0.000000e+00  
 9.554670e-01 1.469375e+00 0.000000e+00  
 9.319666e-01 1.481939e+00 0.000000e+00  
 9.562803e-01 1.542749e+00 0.000000e+00  
 8.714765e-01 1.176433e+00 0.000000e+00  
 8.906574e-01 1.227438e+00 0.000000e+00  
 8.273855e-01 1.132352e+00 0.000000e+00  
 8.108723e-01 1.084782e+00 0.000000e+00  
 5.232523e-01 5.232523e-01 0.000000e+00  
 6.243822e-01 6.937400e-01 0.000000e+00  
 5.907464e-01 6.417704e-01 0.000000e+00  
 6.578470e-01 7.856901e-01 0.000000e+00  
 6.252460e-01 7.365969e-01 0.000000e+00  
 7.488977e-01 9.917565e-01 0.000000e+00  
 7.613770e-01 1.033221e+00 0.000000e+00  
 7.050355e-01 9.374640e-01 0.000000e+00  
 7.001564e-01 8.866568e-01 0.000000e+00  
 6.597299e-01 8.329180e-01 0.000000e+00  
 5.581172e-01 6.278083e-01 0.000000e+00  
 5.230965e-01 5.733693e-01 0.000000e+00  
 4.551246e-01 4.551246e-01 0.000000e+00  
 3.866544e-01 3.866544e-01 0.000000e+00  
 1.000000e+00 1.659068e+00 0.000000e+00  
 1.000000e+00 1.728446e+00 0.000000e+00  
 1.000000e+00 1.795094e+00 0.000000e+00  
 8.943378e-01 1.301564e+00 0.000000e+00  
 8.715287e-01 1.243773e+00 0.000000e+00  
 9.307270e-01 1.555111e+00 0.000000e+00  
 9.532188e-01 1.611579e+00 0.000000e+00  
 8.740279e-01 1.316927e+00 0.000000e+00  
 8.979699e-01 1.376361e+00 0.000000e+00  
 8.765236e-01 1.390719e+00 0.000000e+00  
 9.007539e-01 1.451142e+00 0.000000e+00  
 8.774133e-01 1.463711e+00 0.000000e+00  
 9.023890e-01 1.525624e+00 0.000000e+00  
 8.099856e-01 1.148468e+00 0.000000e+00  
 8.339343e-01 1.208403e+00 0.000000e+00  
 7.449430e-01 1.048818e+00 0.000000e+00  
 7.730923e-01 1.115518e+00 0.000000e+00  
 4.902012e-01 5.597976e-01 0.000000e+00  
 4.550422e-01 5.046297e-01 0.000000e+00  
 7.116193e-01 1.021975e+00 0.000000e+00  
 5.575740e-01 6.683372e-01 0.000000e+00  
 5.934512e-01 7.233930e-01 0.000000e+00  
 6.347128e-01 8.256526e-01 0.000000e+00  
 5.929900e-01 7.636368e-01 0.000000e+00  
 6.803649e-01 9.334268e-01 0.000000e+00  
 6.785511e-01 9.575495e-01 0.000000e+00  
 6.336452e-01 8.600889e-01 0.000000e+00  
 5.262832e-01 6.553331e-01 0.000000e+00  
 4.897928e-01 5.984410e-01 0.000000e+00  
 4.214091e-01 4.909215e-01 0.000000e+00  
 3.866105e-01 4.360179e-01 0.000000e+00  
 3.177031e-01 3.177031e-01 0.000000e+00  
 3.523921e-01 4.219251e-01 0.000000e+00  
 3.183942e-01 3.678935e-01 0.000000e+00  
 2.507909e-01 2.507909e-01 0.000000e+00  
 9.574400e-01 1.823115e+00 0.000000e+00  
 1.000000e+00 1.868726e+00 0.000000e+00  
 1.000000e+00 1.932818e+00 0.000000e+00  
 1.000000e+00 2.000000e+00 0.000000e+00  
 9.298869e-01 1.627655e+00 0.000000e+00  
 9.485962e-01 1.676680e+00 0.000000e+00  
 9.307086e-01 1.694540e+00 0.000000e+00  
 9.488836e-01 1.746083e+00 0.000000e+00  
 9.345880e-01 1.758039e+00 0.000000e+00  
 8.146492e-01 1.224809e+00 0.000000e+00  
 8.391024e-01 1.283851e+00 0.000000e+00  
 8.951091e-01 1.590383e+00 0.000000e+00  
 8.727997e-01 1.535637e+00 0.000000e+00  
 8.422938e-01 1.357850e+00 0.000000e+00  
 8.191099e-01 1.300384e+00 0.000000e+00  
 8.221526e-01 1.372909e+00 0.000000e+00  
 8.464121e-01 1.433496e+00 0.000000e+00  
 8.247310e-01 1.445306e+00 0.000000e+00  
 8.497154e-01 1.510575e+00 0.000000e+00  
 7.540258e-01 1.133069e+00 0.000000e+00  
 7.805058e-01 1.193206e+00 0.000000e+00  
 7.226812e-01 1.105038e+00 0.000000e+00  
 6.946816e-01 1.048176e+00 0.000000e+00  
 4.213361e-01 5.293838e-01 0.000000e+00  
 4.573581e-01 5.857048e-01 0.000000e+00  
 6.663864e-01 1.024477e+00 0.000000e+00  
 6.356703e-01 9.405390e-01 0.000000e+00  
 6.342209e-01 9.633750e-01 0.000000e+00  
 5.249342e-01 6.938675e-01 0.000000e+00  
 5.630021e-01 7.533080e-01 0.000000e+00  
 5.624469e-01 7.872832e-01 0.000000e+00  
 6.010517e-01 8.514065e-01 0.000000e+00  
 6.006565e-01 8.764076e-01 0.000000e+00  
 4.940516e-01 6.810854e-01 0.000000e+00  
 4.570882e-01 6.238026e-01 0.000000e+00  
 3.882912e-01 5.165578e-01 0.000000e+00  
 3.523223e-01 4.602034e-01 0.000000e+00  
 2.813637e-01 3.525765e-01 0.000000e+00  
 2.505516e-01 3.034059e-01 0.000000e+00  
 2.833909e-01 3.907949e-01 0.000000e+00  
 3.194843e-01 4.474813e-01 0.000000e+00  
 2.147097e-01 2.847574e-01 0.000000e+00  
 1.847271e-01 2.359718e-01 0.000000e+00  
 1.833419e-01 1.833419e-01 0.000000e+00  
 1.203142e-01 1.203142e-01 0.000000e+00  
 6.138300e-02 6.138300e-02 0.000000e+00  
 -4.914500e-12 -9.710300e-12 0.000000e+00  
 8.939249e-01 1.724647e+00 0.000000e+00  
 9.281363e-01 1.825240e+00 0.000000e+00  
 8.841571e-01 1.757704e+00 0.000000e+00  
 9.316908e-01 1.860153e+00 0.000000e+00  
 9.423871e-01 1.879465e+00 0.000000e+00  
 9.435996e-01 1.943600e+00 0.000000e+00  
 8.670786e-01 1.608977e+00 0.000000e+00  
 8.817491e-01 1.645359e+00 0.000000e+00  
 8.696959e-01 1.675862e+00 0.000000e+00  
 7.823806e-01 1.265279e+00 0.000000e+00  
 7.605047e-01 1.212335e+00 0.000000e+00  
 8.375085e-01 1.573960e+00 0.000000e+00  
 8.171907e-01 1.512000e+00 0.000000e+00  
 7.932181e-01 1.483987e+00 0.000000e+00  
 7.868012e-01 1.339677e+00 0.000000e+00  
 7.635549e-01 1.284116e+00 0.000000e+00  
 7.688100e-01 1.357042e+00 0.000000e+00  
 7.897278e-01 1.411818e+00 0.000000e+00  
 7.731725e-01 1.423944e+00 0.000000e+00  
 7.225974e-01 1.175292e+00 0.000000e+00  
 7.032930e-01 1.129501e+00 0.000000e+00  
 6.611024e-01 1.086740e+00 0.000000e+00  
 6.468952e-01 1.049589e+00 0.000000e+00  
 3.882739e-01 5.547085e-01 0.000000e+00  
 4.251024e-01 6.119815e-01 0.000000e+00  
 6.023045e-01 9.990029e-01 0.000000e+00  
 5.954157e-01 9.482535e-01 0.000000e+00  
 5.642808e-01 9.023599e-01 0.000000e+00  
 5.601190e-01 8.632537e-01 0.000000e+00  
 4.926027e-01 7.214806e-01 0.000000e+00  
 5.258676e-01 7.739296e-01 0.000000e+00  
 5.284555e-01 8.129254e-01 0.000000e+00  
 4.250325e-01 6.485918e-01 0.000000e+00  
 4.616995e-01 7.064046e-01 0.000000e+00  
 3.189952e-01 4.857973e-01 0.000000e+00  
 3.558861e-01 5.426560e-01 0.000000e+00  
 2.913834e-01 4.752172e-01 0.000000e+00  
 2.126538e-01 3.286308e-01 0.000000e+00  
 2.462010e-01 3.795542e-01 0.000000e+00  
 2.514880e-01 4.188135e-01 0.000000e+00  
 1.867927e-01 3.153559e-01 0.000000e+00  
 1.401378e-01 2.142951e-01 0.000000e+00  
 1.426414e-01 2.449732e-01 0.000000e+00  
 1.202923e-01 1.796619e-01 0.000000e+00  
 7.239843e-02 1.419521e-01 0.000000e+00  
 5.794855e-02 1.128734e-01 0.000000e+00  
 -4.914500e-12 6.064779e-02 0.000000e+00  
 8.283681e-01 1.644422e+00 0.000000e+00  
 8.266424e-01 1.693711e+00 0.000000e+00  
 8.601285e-01 1.745561e+00 0.000000e+00  
 8.565240e-01 1.786323e+00 0.000000e+00  
 8.823463e-01 1.830392e+00 0.000000e+00  
 8.827332e-01 1.882733e+00 0.000000e+00  
 8.027643e-01 1.571850e+00 0.000000e+00  
 8.071310e-01 1.608355e+00 0.000000e+00  
 7.279342e-01 1.250924e+00 0.000000e+00  
 7.033067e-01 1.198134e+00 0.000000e+00  
 7.621001e-01 1.509560e+00 0.000000e+00  
 7.600554e-01 1.481318e+00 0.000000e+00  
 7.301514e-01 1.384392e+00 0.000000e+00  
 7.200405e-01 1.417213e+00 0.000000e+00  
 7.094157e-01 1.277704e+00 0.000000e+00  
 7.268234e-01 1.316780e+00 0.000000e+00  
 7.133006e-01 1.347747e+00 0.000000e+00  
 6.427258e-01 1.108775e+00 0.000000e+00  
 6.741053e-01 1.171753e+00 0.000000e+00  
 6.204425e-01 1.091036e+00 0.000000e+00  
 5.820064e-01 9.987873e-01 0.000000e+00  
 5.833122e-01 1.025488e+00 0.000000e+00  
 3.897323e-01 6.362101e-01 0.000000e+00  
 3.562514e-01 5.793414e-01 0.000000e+00  
 5.356617e-01 9.339309e-01 0.000000e+00  
 5.315993e-01 8.945513e-01 0.000000e+00  
 4.934779e-01 8.395616e-01 0.000000e+00  
 4.889078e-01 7.984568e-01 0.000000e+00  
 4.569713e-01 7.483782e-01 0.000000e+00  
 4.317533e-01 7.333337e-01 0.000000e+00  
 3.892995e-01 6.610930e-01 0.000000e+00  
 3.132162e-01 5.599777e-01 0.000000e+00  
 2.906362e-01 5.225076e-01 0.000000e+00  
 2.209808e-01 4.181296e-01 0.000000e+00  
 2.495190e-01 4.935782e-01 0.000000e+00  
 1.959598e-01 3.921092e-01 0.000000e+00  
 1.762619e-01 3.467382e-01 0.000000e+00  
 1.113529e-01 2.458302e-01 0.000000e+00  
 1.288738e-01 3.029418e-01 0.000000e+00  
 7.269349e-02 2.004559e-01 0.000000e+00  
 6.535202e-02 1.821282e-01 0.000000e+00  
 -5.868900e-12 1.134714e-01 0.000000e+00  
 7.612944e-01 1.586924e+00 0.000000e+00  
 7.632418e-01 1.628810e+00 0.000000e+00  
 7.923238e-01 1.674923e+00 0.000000e+00  
 7.920859e-01 1.720593e+00 0.000000e+00  
 8.194863e-01 1.764504e+00 0.000000e+00  
 8.187821e-01 1.818782e+00 0.000000e+00  
 7.295217e-01 1.503489e+00 0.000000e+00  
 7.302240e-01 1.535471e+00 0.000000e+00  
 6.518263e-01 1.194967e+00 0.000000e+00  
 6.721077e-01 1.240041e+00 0.000000e+00  
 6.942040e-01 1.402976e+00 0.000000e+00  
 6.874559e-01 1.436963e+00 0.000000e+00  
 6.689264e-01 1.306734e+00 0.000000e+00  
 6.579061e-01 1.341960e+00 0.000000e+00  
 6.506259e-01 1.267653e+00 0.000000e+00  
 6.186847e-01 1.160994e+00 0.000000e+00  
 5.997024e-01 1.114073e+00 0.000000e+00  
 5.616974e-01 1.073894e+00 0.000000e+00  
 5.454514e-01 1.018763e+00 0.000000e+00  
 5.207336e-01 9.869967e-01 0.000000e+00  
 5.069474e-01 9.313844e-01 0.000000e+00  
 3.179686e-01 6.014544e-01 0.000000e+00  
 3.579406e-01 6.560789e-01 0.000000e+00  
 4.612853e-01 8.342909e-01 0.000000e+00  
 4.763088e-01 8.933982e-01 0.000000e+00  
 4.294641e-01 7.950977e-01 0.000000e+00  
 4.170997e-01 7.594360e-01 0.000000e+00  
 3.651851e-01 7.025516e-01 0.000000e+00  
 2.916711e-01 6.003353e-01 0.000000e+00  
 2.380204e-01 5.051480e-01 0.000000e+00  
 2.553325e-01 5.584550e-01 0.000000e+00  
 1.719188e-01 4.091403e-01 0.000000e+00  
 1.912200e-01 4.614356e-01 0.000000e+00  
 1.322234e-01 3.681253e-01 0.000000e+00  
 1.138727e-01 3.146212e-01 0.000000e+00  
 7.073484e-02 2.726472e-01 0.000000e+00  
 5.343958e-02 2.294193e-01 0.000000e+00  
 -5.229700e-12 1.752221e-01 0.000000e+00  
 6.933933e-01 1.521259e+00 0.000000e+00  
 6.942450e-01 1.561488e+00 0.000000e+00  
 7.256095e-01 1.610947e+00 0.000000e+00  
 7.266215e-01 1.655140e+00 0.000000e+00  
 7.553657e-01 1.700385e+00 0.000000e+00  
 7.556051e-01 1.755605e+00 0.000000e+00  
 6.586103e-01 1.466675e+00 0.000000e+00  
 6.604266e-01 1.424750e+00 0.000000e+00  
 6.167836e-01 1.232711e+00 0.000000e+00  
 5.964214e-01 1.175472e+00 0.000000e+00  
 6.242181e-01 1.320557e+00 0.000000e+00  
 6.260065e-01 1.372978e+00 0.000000e+00  
 6.070229e-01 1.294105e+00 0.000000e+00  
 5.944193e-01 1.239399e+00 0.000000e+00  
 5.401154e-01 1.081470e+00 0.000000e+00  
 5.575294e-01 1.134863e+00 0.000000e+00  
 4.866616e-01 9.817785e-01 0.000000e+00  
 5.045032e-01 1.042882e+00 0.000000e+00  
 4.443386e-01 8.901737e-01 0.000000e+00  
 4.623890e-01 9.521847e-01 0.000000e+00  
 3.059135e-01 6.597204e-01 0.000000e+00  
 3.494280e-01 7.065603e-01 0.000000e+00  
 4.167136e-01 8.570030e-01 0.000000e+00  
 4.004999e-01 8.054459e-01 0.000000e+00  
 3.620775e-01 7.606256e-01 0.000000e+00  
 2.859858e-01 6.634085e-01 0.000000e+00  
 2.297482e-01 5.675630e-01 0.000000e+00  
 2.471448e-01 6.215388e-01 0.000000e+00  
 1.747495e-01 4.776795e-01 0.000000e+00  
 1.914011e-01 5.255006e-01 0.000000e+00  
 1.303295e-01 4.329318e-01 0.000000e+00  
 1.125737e-01 3.818168e-01 0.000000e+00  
 7.079918e-02 3.391340e-01 0.000000e+00  
 5.371922e-02 2.931980e-01 0.000000e+00  
 -5.229700e-12 2.394504e-01 0.000000e+00  
 6.267531e-01 1.452174e+00 0.000000e+00  
 6.250130e-01 1.492342e+00 0.000000e+00  
 6.592912e-01 1.545998e+00 0.000000e+00  
 6.592539e-01 1.588042e+00 0.000000e+00  
 6.906662e-01 1.637180e+00 0.000000e+00  
 6.908723e-01 1.690872e+00 0.000000e+00  
 5.901327e-01 1.394522e+00 0.000000e+00  
 5.927951e-01 1.358002e+00 0.000000e+00  
 5.360414e-01 1.146711e+00 0.000000e+00  
 5.504737e-01 1.189766e+00 0.000000e+00  
 5.533219e-01 1.292772e+00 0.000000e+00  
 5.289002e-01 1.208119e+00 0.000000e+00  
 5.566564e-01 1.267567e+00 0.000000e+00  
 4.806870e-01 1.046791e+00 0.000000e+00  
 4.970307e-01 1.103952e+00 0.000000e+00  
 4.279126e-01 9.476428e-01 0.000000e+00  
 4.445809e-01 1.006416e+00 0.000000e+00  
 3.857070e-01 8.583349e-01 0.000000e+00  
 4.030923e-01 9.168422e-01 0.000000e+00  
 3.389669e-01 7.636597e-01 0.000000e+00  
 3.013631e-01 7.217032e-01 0.000000e+00  
 3.542958e-01 8.213705e-01 0.000000e+00  
 2.790618e-01 7.248350e-01 0.000000e+00  
 2.245661e-01 6.303520e-01 0.000000e+00  
 2.416140e-01 6.840283e-01 0.000000e+00  
 1.689737e-01 5.393190e-01 0.000000e+00  
 1.862729e-01 5.892047e-01 0.000000e+00  
 1.119668e-01 4.480669e-01 0.000000e+00  
 1.291975e-01 4.969657e-01 0.000000e+00  
 6.974431e-02 4.049882e-01 0.000000e+00  
 5.221194e-02 3.568211e-01 0.000000e+00  
 -5.224000e-12 3.040883e-01 0.000000e+00  
 5.594307e-01 1.380865e+00 0.000000e+00  
 5.597510e-01 1.426949e+00 0.000000e+00  
 5.930342e-01 1.477506e+00 0.000000e+00  
 5.927884e-01 1.521861e+00 0.000000e+00  
 6.252840e-01 1.571924e+00 0.000000e+00  
 6.253158e-01 1.625316e+00 0.000000e+00  
 5.233914e-01 1.281259e+00 0.000000e+00  
 5.258673e-01 1.331437e+00 0.000000e+00  
 4.943818e-01 1.175999e+00 0.000000e+00  
 4.746909e-01 1.108716e+00 0.000000e+00  
 4.887175e-01 1.233521e+00 0.000000e+00  
 4.799721e-01 1.179832e+00 0.000000e+00  
 4.356685e-01 1.067293e+00 0.000000e+00  
 4.204691e-01 1.010174e+00 0.000000e+00  
 3.658073e-01 9.118842e-01 0.000000e+00  
 3.820352e-01 9.664950e-01 0.000000e+00  
 3.450782e-01 8.852091e-01 0.000000e+00  
 3.271319e-01 8.211427e-01 0.000000e+00  
 2.949455e-01 7.847679e-01 0.000000e+00  
 2.723197e-01 7.849982e-01 0.000000e+00  
 2.189939e-01 6.924105e-01 0.000000e+00  
 2.364101e-01 7.462128e-01 0.000000e+00  
 1.822894e-01 6.533011e-01 0.000000e+00  
 1.640814e-01 6.018022e-01 0.000000e+00  
 1.081031e-01 5.115805e-01 0.000000e+00  
 1.264771e-01 5.622540e-01 0.000000e+00  
 6.907836e-02 4.711608e-01 0.000000e+00  
 5.082327e-02 4.214657e-01 0.000000e+00  
 -5.114400e-12 3.701989e-01 0.000000e+00  
 4.926175e-01 1.317210e+00 0.000000e+00  
 4.956983e-01 1.364810e+00 0.000000e+00  
 5.266870e-01 1.411659e+00 0.000000e+00  
 5.278321e-01 1.457358e+00 0.000000e+00  
 5.595995e-01 1.506066e+00 0.000000e+00  
 5.598203e-01 1.559820e+00 0.000000e+00  
 4.623758e-01 1.272635e+00 0.000000e+00  
 4.562180e-01 1.225330e+00 0.000000e+00  
 4.272809e-01 1.124794e+00 0.000000e+00  
 4.163320e-01 1.071947e+00 0.000000e+00  
 4.237426e-01 1.180114e+00 0.000000e+00  
 4.151330e-01 1.129263e+00 0.000000e+00  
 3.710817e-01 1.020920e+00 0.000000e+00  
 3.570072e-01 9.745853e-01 0.000000e+00  
 3.169785e-01 9.284388e-01 0.000000e+00  
 3.019533e-01 8.712773e-01 0.000000e+00  
 2.882874e-01 8.522126e-01 0.000000e+00  
 2.415558e-01 8.253710e-01 0.000000e+00  
 2.148172e-01 7.546454e-01 0.000000e+00  
 1.822452e-01 7.236736e-01 0.000000e+00  
 1.600874e-01 6.656053e-01 0.000000e+00  
 1.255824e-01 6.309809e-01 0.000000e+00  
 1.048456e-01 5.761747e-01 0.000000e+00  
 6.853178e-02 5.393586e-01 0.000000e+00  
 4.864289e-02 4.864840e-01 0.000000e+00  
 -5.017000e-12 4.374819e-01 0.000000e+00  
 4.266156e-01 1.259720e+00 0.000000e+00  
 4.280569e-01 1.298731e+00 0.000000e+00  
 4.604878e-01 1.349361e+00 0.000000e+00  
 4.615351e-01 1.391589e+00 0.000000e+00  
 4.935437e-01 1.441431e+00 0.000000e+00  
 4.939254e-01 1.493925e+00 0.000000e+00  
 3.910444e-01 1.203737e+00 0.000000e+00  
 3.912477e-01 1.171856e+00 0.000000e+00  
 3.474706e-01 1.035288e+00 0.000000e+00  
 3.495228e-01 1.104074e+00 0.000000e+00  
 3.628456e-01 1.076123e+00 0.000000e+00  
 3.112219e-01 9.954879e-01 0.000000e+00  
 2.935721e-01 9.333766e-01 0.000000e+00  
 2.354609e-01 8.353215e-01 0.000000e+00  
 2.539149e-01 8.907102e-01 0.000000e+00  
 1.633885e-01 7.364867e-01 0.000000e+00  
 1.849802e-01 7.944648e-01 0.000000e+00  
 1.259309e-01 7.008038e-01 0.000000e+00  
 1.046200e-01 6.444338e-01 0.000000e+00  
 6.840396e-02 6.084843e-01 0.000000e+00  
 4.770669e-02 5.536473e-01 0.000000e+00  
 -4.933100e-12 5.058876e-01 0.000000e+00  
 3.591949e-01 1.192166e+00 0.000000e+00  
 3.931709e-01 1.284580e+00 0.000000e+00  
 3.602413e-01 1.233331e+00 0.000000e+00  
 3.942451e-01 1.325088e+00 0.000000e+00  
 4.267115e-01 1.376143e+00 0.000000e+00  
 4.271425e-01 1.427143e+00 0.000000e+00  
 3.258120e-01 1.090668e+00 0.000000e+00  
 3.245641e-01 1.140355e+00 0.000000e+00  
 2.873260e-01 9.972508e-01 0.000000e+00  
 2.978911e-01 1.050367e+00 0.000000e+00  
 2.330750e-01 9.020312e-01 0.000000e+00  
 2.456952e-01 9.481450e-01 0.000000e+00  
 1.865589e-01 8.505566e-01 0.000000e+00  
 1.728149e-01 8.118231e-01 0.000000e+00  
 1.073777e-01 7.152797e-01 0.000000e+00  
 1.258755e-01 7.659123e-01 0.000000e+00  
 6.817535e-02 6.763934e-01 0.000000e+00  
 4.808123e-02 6.224631e-01 0.000000e+00  
 -4.928300e-12 5.744152e-01 0.000000e+00  
 2.927996e-01 1.125209e+00 0.000000e+00  
 2.951534e-01 1.171373e+00 0.000000e+00  
 3.253270e-01 1.218625e+00 0.000000e+00  
 3.266841e-01 1.258752e+00 0.000000e+00  
 3.588906e-01 1.310070e+00 0.000000e+00  
 3.594699e-01 1.359470e+00 0.000000e+00  
 2.649334e-01 1.083444e+00 0.000000e+00  
 2.574748e-01 1.035748e+00 0.000000e+00  
 2.336275e-01 1.000430e+00 0.000000e+00  
 2.231226e-01 9.546464e-01 0.000000e+00  
 1.676167e-01 8.738907e-01 0.000000e+00  
 1.778859e-01 9.015900e-01 0.000000e+00  
 1.084025e-01 7.841142e-01 0.000000e+00  
 1.238759e-01 8.255338e-01 0.000000e+00  
 6.741761e-02 7.419820e-01 0.000000e+00  
 4.839802e-02 6.913224e-01 0.000000e+00  
 -4.928300e-12 6.426128e-01 0.000000e+00  
 2.274820e-01 1.069750e+00 0.000000e+00  
 2.573350e-01 1.153746e+00 0.000000e+00  
 2.282047e-01 1.105296e+00 0.000000e+00  
 2.580086e-01 1.190704e+00 0.000000e+00  
 2.899836e-01 1.243390e+00 0.000000e+00  
 2.903359e-01 1.290336e+00 0.000000e+00  
 1.893724e-01 1.007357e+00 0.000000e+00  
 1.892795e-01 9.863705e-01 0.000000e+00  
 1.602810e-01 9.290610e-01 0.000000e+00  
 1.270278e-01 9.002458e-01 0.000000e+00  