# vtk DataFile Version 1.0 
PolyMesh 
ASCII 
 
DATASET POLYDATA 
 
POINTS 3989 float 
-7.432700e-12 -2.000000e+00 0.000000e+00  
 8.634793e-02 -2.000000e+00 0.000000e+00  
 9.353936e-02 -1.897275e+00 0.000000e+00  
 -7.432700e-12 -1.887326e+00 0.000000e+00  
 -9.311500e-12 -1.791395e+00 0.000000e+00  
 1.032936e-01 -1.890300e+00 0.000000e+00  
 1.844218e-01 -1.916876e+00 0.000000e+00  
 1.860569e-01 -2.000000e+00 0.000000e+00  
 -7.755600e-12 -1.675322e+00 0.000000e+00  
 2.838981e-01 -2.000000e+00 0.000000e+00  
 5.717647e-02 -1.673199e+00 0.000000e+00  
 9.118294e-02 -1.783405e+00 0.000000e+00  
 1.164798e-01 -1.817449e+00 0.000000e+00  
 1.077036e-01 -1.726425e+00 0.000000e+00  
 2.134177e-01 -1.807090e+00 0.000000e+00  
 2.838509e-01 -1.910453e+00 0.000000e+00  
 2.219353e-01 -1.888098e+00 0.000000e+00  
 3.833626e-01 -2.000000e+00 0.000000e+00  
 -7.512100e-12 -1.556092e+00 0.000000e+00  
 1.018298e-01 -1.607506e+00 0.000000e+00  
 7.081704e-02 -1.557996e+00 0.000000e+00  
 3.258645e-01 -1.884669e+00 0.000000e+00  
 3.861798e-01 -1.922717e+00 0.000000e+00  
 1.611188e-01 -1.615608e+00 0.000000e+00  
 1.637621e-01 -1.705617e+00 0.000000e+00  
 2.187115e-01 -1.799731e+00 0.000000e+00  
 2.018408e-01 -1.724566e+00 0.000000e+00  
 3.319824e-01 -1.835215e+00 0.000000e+00  
 2.917662e-01 -1.792959e+00 0.000000e+00  
 -7.512100e-12 -1.444686e+00 0.000000e+00  
 4.885186e-01 -2.000000e+00 0.000000e+00  
 4.420888e-01 -1.892124e+00 0.000000e+00  
 4.879863e-01 -1.922289e+00 0.000000e+00  
 1.071447e-01 -1.499548e+00 0.000000e+00  
 6.600060e-02 -1.443755e+00 0.000000e+00  
 1.748732e-01 -1.606163e+00 0.000000e+00  
 1.556008e-01 -1.496895e+00 0.000000e+00  
 1.873921e-01 -1.530217e+00 0.000000e+00  
 4.421184e-01 -1.833198e+00 0.000000e+00  
 4.012710e-01 -1.804380e+00 0.000000e+00  
 2.649574e-01 -1.681008e+00 0.000000e+00  
 2.515968e-01 -1.626081e+00 0.000000e+00  
 3.232929e-01 -1.707532e+00 0.000000e+00  
 3.994477e-01 -1.745633e+00 0.000000e+00  
 1.043259e-01 -1.383654e+00 0.000000e+00  
 6.618149e-02 -1.330778e+00 0.000000e+00  
 -7.265100e-12 -1.330700e+00 0.000000e+00  
 -7.265100e-12 -1.220428e+00 0.000000e+00  
 -7.646100e-12 -1.106027e+00 0.000000e+00  
 -7.646100e-12 -1.000942e+00 0.000000e+00  
 5.875024e-01 -2.000000e+00 0.000000e+00  
 6.807594e-01 -2.000000e+00 0.000000e+00  
 5.524576e-01 -1.891532e+00 0.000000e+00  
 5.887539e-01 -1.922375e+00 0.000000e+00  
 5.545967e-01 -1.845999e+00 0.000000e+00  
 5.051261e-01 -1.802581e+00 0.000000e+00  
 1.503868e-01 -1.383572e+00 0.000000e+00  
 1.848959e-01 -1.426568e+00 0.000000e+00  
 2.566669e-01 -1.519611e+00 0.000000e+00  
 2.909585e-01 -1.579546e+00 0.000000e+00  
 2.426871e-01 -1.423922e+00 0.000000e+00  
 2.757718e-01 -1.478278e+00 0.000000e+00  
 4.546470e-01 -1.705936e+00 0.000000e+00  
 5.104553e-01 -1.760750e+00 0.000000e+00  
 3.694259e-01 -1.629769e+00 0.000000e+00  
 3.356157e-01 -1.582222e+00 0.000000e+00  
 4.564310e-01 -1.690428e+00 0.000000e+00  
 4.123898e-01 -1.632086e+00 0.000000e+00  
 1.871516e-01 -1.316762e+00 0.000000e+00  
 1.522224e-01 -1.272415e+00 0.000000e+00  
 1.033604e-01 -1.271447e+00 0.000000e+00  
 6.810220e-02 -1.218795e+00 0.000000e+00  
 9.686355e-02 -1.170655e+00 0.000000e+00  
 6.296858e-02 -1.108765e+00 0.000000e+00  
 9.973854e-02 -1.067908e+00 0.000000e+00  
 8.735609e-02 -9.971498e-01 0.000000e+00  
 6.676356e-01 -1.898078e+00 0.000000e+00  
 6.834843e-01 -1.914555e+00 0.000000e+00  
 7.693461e-01 -1.912619e+00 0.000000e+00  
 7.726241e-01 -2.000000e+00 0.000000e+00  
 6.682147e-01 -1.847559e+00 0.000000e+00  
 6.182619e-01 -1.809951e+00 0.000000e+00  
 5.728685e-01 -1.728330e+00 0.000000e+00  
 6.184614e-01 -1.759540e+00 0.000000e+00  
 2.710826e-01 -1.373457e+00 0.000000e+00  
 2.333856e-01 -1.316760e+00 0.000000e+00  
 3.738412e-01 -1.521199e+00 0.000000e+00  
 3.458353e-01 -1.469292e+00 0.000000e+00  
 3.627153e-01 -1.432924e+00 0.000000e+00  
 3.239623e-01 -1.369185e+00 0.000000e+00  
 5.711994e-01 -1.669946e+00 0.000000e+00  
 5.251003e-01 -1.645506e+00 0.000000e+00  
 4.398732e-01 -1.528028e+00 0.000000e+00  
 4.583426e-01 -1.566869e+00 0.000000e+00  
 5.144563e-01 -1.584262e+00 0.000000e+00  
 2.709440e-01 -1.262521e+00 0.000000e+00  
 1.905048e-01 -1.199960e+00 0.000000e+00  
 2.310754e-01 -1.200883e+00 0.000000e+00  
 1.597936e-01 -1.166007e+00 0.000000e+00  
 1.769243e-01 -1.089158e+00 0.000000e+00  
 1.935652e-01 -1.078423e+00 0.000000e+00  
 1.864589e-01 -9.836240e-01 0.000000e+00  
 8.608744e-01 -2.000000e+00 0.000000e+00  
 7.806456e-01 -1.846410e+00 0.000000e+00  
 7.265093e-01 -1.810800e+00 0.000000e+00  
 7.818833e-01 -1.899238e+00 0.000000e+00  
 8.612823e-01 -1.919735e+00 0.000000e+00  
 6.755085e-01 -1.727560e+00 0.000000e+00  
 7.262848e-01 -1.760219e+00 0.000000e+00  
 6.214647e-01 -1.639493e+00 0.000000e+00  
 6.761130e-01 -1.671934e+00 0.000000e+00  
 3.170358e-01 -1.262380e+00 0.000000e+00  
 3.537018e-01 -1.323391e+00 0.000000e+00  
 4.700154e-01 -1.471972e+00 0.000000e+00  
 4.287577e-01 -1.416123e+00 0.000000e+00  
 4.002601e-01 -1.320746e+00 0.000000e+00  
 4.412729e-01 -1.380310e+00 0.000000e+00  
 5.608067e-01 -1.548138e+00 0.000000e+00  
 6.229276e-01 -1.585440e+00 0.000000e+00  
 5.616204e-01 -1.503476e+00 0.000000e+00  
 5.187431e-01 -1.466160e+00 0.000000e+00  
 3.520200e-01 -1.214695e+00 0.000000e+00  
 2.726143e-01 -1.150992e+00 0.000000e+00  
 3.307617e-01 -1.159445e+00 0.000000e+00  
 2.481867e-01 -1.088581e+00 0.000000e+00  
 2.891673e-01 -1.048410e+00 0.000000e+00  
 2.628868e-01 -9.657106e-01 0.000000e+00  
 9.552951e-01 -2.000000e+00 0.000000e+00  
 8.901931e-01 -1.896469e+00 0.000000e+00  
 9.554990e-01 -1.923805e+00 0.000000e+00  
 1.051903e+00 -2.000000e+00 0.000000e+00  
 7.799062e-01 -1.727538e+00 0.000000e+00  
 8.331176e-01 -1.759350e+00 0.000000e+00  
 8.905628e-01 -1.842470e+00 0.000000e+00  
 8.342135e-01 -1.808803e+00 0.000000e+00  
 7.265887e-01 -1.641396e+00 0.000000e+00  
 7.797417e-01 -1.671712e+00 0.000000e+00  
 6.728112e-01 -1.553205e+00 0.000000e+00  
 7.264822e-01 -1.583901e+00 0.000000e+00  
 4.167778e-01 -1.223460e+00 0.000000e+00  
 4.338756e-01 -1.272333e+00 0.000000e+00  
 5.482676e-01 -1.381334e+00 0.000000e+00  
 5.077486e-01 -1.356393e+00 0.000000e+00  
 5.005032e-01 -1.285550e+00 0.000000e+00  
 6.279811e-01 -1.468101e+00 0.000000e+00  
 6.718268e-01 -1.498087e+00 0.000000e+00  
 5.655796e-01 -1.378039e+00 0.000000e+00  
 6.262312e-01 -1.418286e+00 0.000000e+00  
 4.476867e-01 -1.181886e+00 0.000000e+00  
 4.305126e-01 -1.125807e+00 0.000000e+00  
 3.667544e-01 -1.115383e+00 0.000000e+00  
 3.472020e-01 -1.055883e+00 0.000000e+00  
 3.794784e-01 -1.017515e+00 0.000000e+00  
 3.433549e-01 -9.403606e-01 0.000000e+00  
 1.149170e+00 -2.000000e+00 0.000000e+00  
 9.956079e-01 -1.896095e+00 0.000000e+00  
 1.052115e+00 -1.924518e+00 0.000000e+00  
 9.390871e-01 -1.809980e+00 0.000000e+00  
 9.953177e-01 -1.842117e+00 0.000000e+00  
 1.097867e+00 -1.896686e+00 0.000000e+00  
 1.149152e+00 -1.924695e+00 0.000000e+00  
 1.245994e+00 -2.000000e+00 0.000000e+00  
 8.282635e-01 -1.642023e+00 0.000000e+00  
 8.834252e-01 -1.672507e+00 0.000000e+00  
 8.840102e-01 -1.725590e+00 0.000000e+00  
 9.394094e-01 -1.757382e+00 0.000000e+00  
 8.291043e-01 -1.582168e+00 0.000000e+00  
 7.757864e-01 -1.554185e+00 0.000000e+00  
 7.745486e-01 -1.490896e+00 0.000000e+00  
 7.307192e-01 -1.466805e+00 0.000000e+00  
 5.329313e-01 -1.255878e+00 0.000000e+00  
 5.166171e-01 -1.191299e+00 0.000000e+00  
 5.882793e-01 -1.267606e+00 0.000000e+00  
 6.080124e-01 -1.306463e+00 0.000000e+00  
 7.252659e-01 -1.398579e+00 0.000000e+00  
 6.855608e-01 -1.379251e+00 0.000000e+00  
 6.716907e-01 -1.319917e+00 0.000000e+00  
 5.479533e-01 -1.153320e+00 0.000000e+00  
 5.414105e-01 -1.118422e+00 0.000000e+00  
 4.704144e-01 -1.071808e+00 0.000000e+00  
 4.203229e-01 -1.016295e+00 0.000000e+00  
 4.572289e-01 -9.570420e-01 0.000000e+00  
 4.296092e-01 -9.042333e-01 0.000000e+00  
 1.198668e+00 -1.896779e+00 0.000000e+00  
 1.245684e+00 -1.924007e+00 0.000000e+00  
 1.044688e+00 -1.808839e+00 0.000000e+00  
 1.097878e+00 -1.839153e+00 0.000000e+00  
 9.865746e-01 -1.726705e+00 0.000000e+00  
 1.043217e+00 -1.759282e+00 0.000000e+00  
 1.147073e+00 -1.809528e+00 0.000000e+00  
 1.198392e+00 -1.838534e+00 0.000000e+00  
 1.341344e+00 -2.000000e+00 0.000000e+00  
 1.299285e+00 -1.896318e+00 0.000000e+00  
 1.340753e+00 -1.922135e+00 0.000000e+00  
 1.433964e+00 -2.000000e+00 0.000000e+00  
 1.521425e+00 -2.000000e+00 0.000000e+00  
 8.726598e-01 -1.556298e+00 0.000000e+00  
 9.312054e-01 -1.587885e+00 0.000000e+00  
 9.307880e-01 -1.640980e+00 0.000000e+00  
 9.880796e-01 -1.672953e+00 0.000000e+00  
 8.263192e-01 -1.463652e+00 0.000000e+00  
 8.770460e-01 -1.495786e+00 0.000000e+00  
 7.814660e-01 -1.369626e+00 0.000000e+00  
 8.296202e-01 -1.409124e+00 0.000000e+00  
 7.871582e-01 -1.327887e+00 0.000000e+00  
 6.362670e-01 -1.201845e+00 0.000000e+00  
 6.204771e-01 -1.174112e+00 0.000000e+00  
 7.090610e-01 -1.279067e+00 0.000000e+00  
 6.744628e-01 -1.210590e+00 0.000000e+00  
 7.451613e-01 -1.280457e+00 0.000000e+00  
 6.562951e-01 -1.087361e+00 0.000000e+00  
 5.875194e-01 -1.066301e+00 0.000000e+00  
 5.705404e-01 -1.019346e+00 0.000000e+00  
 5.328297e-01 -1.005497e+00 0.000000e+00  
 5.144136e-01 -9.670980e-01 0.000000e+00  
 5.478620e-01 -9.123611e-01 0.000000e+00  
 5.184786e-01 -8.563126e-01 0.000000e+00  
 6.623721e-01 -1.084930e+00 0.000000e+00  
 1.247949e+00 -1.809070e+00 0.000000e+00  
 1.298576e+00 -1.837962e+00 0.000000e+00  
 1.094545e+00 -1.722027e+00 0.000000e+00  
 1.146796e+00 -1.751627e+00 0.000000e+00  
 1.031450e+00 -1.645010e+00 0.000000e+00  
 1.091035e+00 -1.678164e+00 0.000000e+00  
 1.195706e+00 -1.723101e+00 0.000000e+00  
 1.247633e+00 -1.751759e+00 0.000000e+00  
 1.612777e+00 -2.000000e+00 0.000000e+00  
 1.400592e+00 -1.895699e+00 0.000000e+00  
 1.433249e+00 -1.918576e+00 0.000000e+00  
 1.349390e+00 -1.807675e+00 0.000000e+00  
[...]
 POINT_DATA 3989 
 VECTORS Displacement float 
 0.000000e+00 2.562046e-05 0.000000e+00  
 6.364515e-07 2.550876e-05 0.000000e+00  
 9.355772e-07 2.522649e-05 0.000000e+00  
 0.000000e+00 2.533694e-05 0.000000e+00  
 0.000000e+00 2.505016e-05 0.000000e+00  
 1.055408e-06 2.517452e-05 0.000000e+00  
 1.777985e-06 2.488473e-05 0.000000e+00  
 1.390118e-06 2.510503e-05 0.000000e+00  
 0.000000e+00 2.468988e-05 0.000000e+00  
 2.188467e-06 2.443578e-05 0.000000e+00  
 8.130338e-07 2.462445e-05 0.000000e+00  
 1.126641e-06 2.489028e-05 0.000000e+00  
 1.355439e-06 2.491104e-05 0.000000e+00  
 1.438003e-06 2.465349e-05 0.000000e+00  
 2.556884e-06 2.438449e-05 0.000000e+00  
 2.832477e-06 2.417323e-05 0.000000e+00  
 2.302572e-06 2.456819e-05 0.000000e+00  
 3.087680e-06 2.350954e-05 0.000000e+00  
 0.000000e+00 2.433450e-05 0.000000e+00  
 1.565858e-06 2.430204e-05 0.000000e+00  
 1.150928e-06 2.424665e-05 0.000000e+00  
 3.469530e-06 2.371577e-05 0.000000e+00  
 3.847700e-06 2.322906e-05 0.000000e+00  
 2.462250e-06 2.406233e-05 0.000000e+00  
 2.250421e-06 2.433609e-05 0.000000e+00  
 2.653574e-06 2.431993e-05 0.000000e+00  
 2.714070e-06 2.417352e-05 0.000000e+00  
 3.867151e-06 2.348928e-05 0.000000e+00  
 3.602269e-06 2.371181e-05 0.000000e+00  
 0.000000e+00 2.401465e-05 0.000000e+00  
 4.164929e-06 2.230811e-05 0.000000e+00  
 4.769342e-06 2.249368e-05 0.000000e+00  
 5.032910e-06 2.204065e-05 0.000000e+00  
 1.857433e-06 2.395622e-05 0.000000e+00  
 1.219187e-06 2.392171e-05 0.000000e+00  
 2.698933e-06 2.395591e-05 0.000000e+00  
 2.702646e-06 2.371817e-05 0.000000e+00  
 3.138935e-06 2.362678e-05 0.000000e+00  
 5.271219e-06 2.227785e-05 0.000000e+00  
 4.957756e-06 2.264557e-05 0.000000e+00  
 3.777610e-06 2.355185e-05 0.000000e+00  
 3.810960e-06 2.347036e-05 0.000000e+00  
 4.485296e-06 2.312297e-05 0.000000e+00  
 5.331877e-06 2.244374e-05 0.000000e+00  
 2.072394e-06 2.361437e-05 0.000000e+00  
 1.413832e-06 2.357379e-05 0.000000e+00  
 0.000000e+00 2.367273e-05 0.000000e+00  
 0.000000e+00 2.326878e-05 0.000000e+00  
 0.000000e+00 2.265861e-05 0.000000e+00  
 0.000000e+00 2.161656e-05 0.000000e+00  
 5.306943e-06 2.101916e-05 0.000000e+00  
 6.503614e-06 1.970740e-05 0.000000e+00  
 6.162618e-06 2.108375e-05 0.000000e+00  
 6.296565e-06 2.070282e-05 0.000000e+00  
 6.649653e-06 2.087191e-05 0.000000e+00  
 6.370625e-06 2.136231e-05 0.000000e+00  
 2.981652e-06 2.338744e-05 0.000000e+00  
 3.478064e-06 2.330907e-05 0.000000e+00  
 4.354861e-06 2.305792e-05 0.000000e+00  
 4.638105e-06 2.296030e-05 0.000000e+00  
 4.574567e-06 2.284608e-05 0.000000e+00  
 4.888777e-06 2.273838e-05 0.000000e+00  
 6.403437e-06 2.162411e-05 0.000000e+00  
 6.794059e-06 2.111931e-05 0.000000e+00  
 5.606885e-06 2.233840e-05 0.000000e+00  
 5.343285e-06 2.252134e-05 0.000000e+00  
 6.536499e-06 2.153806e-05 0.000000e+00  
 6.263631e-06 2.183832e-05 0.000000e+00  
 4.046257e-06 2.292142e-05 0.000000e+00  
 3.523616e-06 2.299158e-05 0.000000e+00  
 2.406580e-06 2.323974e-05 0.000000e+00  
 1.736893e-06 2.314653e-05 0.000000e+00  
 2.694691e-06 2.281671e-05 0.000000e+00  
 2.020595e-06 2.254763e-05 0.000000e+00  
 3.500428e-06 2.214230e-05 0.000000e+00  
 3.767709e-06 2.146433e-05 0.000000e+00  
 7.646573e-06 1.947940e-05 0.000000e+00  
 7.676818e-06 1.931150e-05 0.000000e+00  
 8.940086e-06 1.802664e-05 0.000000e+00  
 7.794605e-06 1.836199e-05 0.000000e+00  
 8.228431e-06 1.924982e-05 0.000000e+00  
 7.896111e-06 1.981879e-05 0.000000e+00  
 7.983788e-06 2.011281e-05 0.000000e+00  
 8.383736e-06 1.959220e-05 0.000000e+00  
 5.416269e-06 2.240128e-05 0.000000e+00  
 5.028262e-06 2.253991e-05 0.000000e+00  
 6.343452e-06 2.185044e-05 0.000000e+00  
 6.189826e-06 2.196935e-05 0.000000e+00  
 6.744854e-06 2.162270e-05 0.000000e+00  
 6.485954e-06 2.181478e-05 0.000000e+00  
 8.457285e-06 1.987038e-05 0.000000e+00  
 7.933095e-06 2.041543e-05 0.000000e+00  
 7.421554e-06 2.105452e-05 0.000000e+00  
 7.449644e-06 2.097978e-05 0.000000e+00  
 8.241360e-06 2.028403e-05 0.000000e+00  
 6.277202e-06 2.196573e-05 0.000000e+00  
 4.943501e-06 2.243276e-05 0.000000e+00  
 5.951602e-06 2.208402e-05 0.000000e+00  
 4.441995e-06 2.248014e-05 0.000000e+00  
 5.772415e-06 2.190924e-05 0.000000e+00  
 6.409376e-06 2.174848e-05 0.000000e+00  
 7.978754e-06 2.095774e-05 0.000000e+00  
 9.126646e-06 1.705845e-05 0.000000e+00  
 9.905647e-06 1.755280e-05 0.000000e+00  
 9.482095e-06 1.820942e-05 0.000000e+00  
 9.291741e-06 1.777517e-05 0.000000e+00  
 1.024279e-05 1.667619e-05 0.000000e+00  
 9.554871e-06 1.859053e-05 0.000000e+00  
 1.001128e-05 1.797338e-05 0.000000e+00  
 9.517253e-06 1.898049e-05 0.000000e+00  
 1.009226e-05 1.830913e-05 0.000000e+00  
 7.294083e-06 2.144753e-05 0.000000e+00  
 7.466697e-06 2.127227e-05 0.000000e+00  
 8.379232e-06 2.039009e-05 0.000000e+00  
 8.098741e-06 2.069990e-05 0.000000e+00  
 8.434428e-06 2.064414e-05 0.000000e+00  
 8.653293e-06 2.035848e-05 0.000000e+00  
 9.311669e-06 1.943891e-05 0.000000e+00  
 1.002169e-05 1.868684e-05 0.000000e+00  
 9.714969e-06 1.920187e-05 0.000000e+00  
 9.294325e-06 1.965461e-05 0.000000e+00  
 8.627672e-06 2.080197e-05 0.000000e+00  
 7.585942e-06 2.143725e-05 0.000000e+00  
 8.912557e-06 2.080076e-05 0.000000e+00  
 7.909477e-06 2.133218e-05 0.000000e+00  
 9.874600e-06 2.068339e-05 0.000000e+00  
 1.126194e-05 2.035283e-05 0.000000e+00  
 1.064433e-05 1.567932e-05 0.000000e+00  
 1.099344e-05 1.613321e-05 0.000000e+00  
 1.169012e-05 1.530159e-05 0.000000e+00  
 1.228082e-05 1.431287e-05 0.000000e+00  
 1.118791e-05 1.698614e-05 0.000000e+00  
 1.169154e-05 1.632572e-05 0.000000e+00  
 1.165811e-05 1.586559e-05 0.000000e+00  
 1.116072e-05 1.655560e-05 0.000000e+00  
 1.119845e-05 1.737075e-05 0.000000e+00  
 1.175715e-05 1.669990e-05 0.000000e+00  
 1.115810e-05 1.774240e-05 0.000000e+00  
 1.175947e-05 1.706335e-05 0.000000e+00  
 9.932590e-06 1.994525e-05 0.000000e+00  
 9.660080e-06 1.994138e-05 0.000000e+00  
 1.065106e-05 1.876905e-05 0.000000e+00  
 1.016351e-05 1.926065e-05 0.000000e+00  
 1.084073e-05 1.899588e-05 0.000000e+00  
 1.121299e-05 1.798231e-05 0.000000e+00  
 1.168009e-05 1.745302e-05 0.000000e+00  
 1.101343e-05 1.847293e-05 0.000000e+00  
 1.169755e-05 1.772937e-05 0.000000e+00  
 1.122730e-05 1.927330e-05 0.000000e+00  
 1.183334e-05 1.923804e-05 0.000000e+00  
 1.054310e-05 2.011512e-05 0.000000e+00  
 1.130753e-05 2.005213e-05 0.000000e+00  
 1.310448e-05 1.943513e-05 0.000000e+00  
 1.465227e-05 1.947622e-05 0.000000e+00  
 1.399645e-05 1.300692e-05 0.000000e+00  
 1.270006e-05 1.458207e-05 0.000000e+00  
 1.328377e-05 1.392418e-05 0.000000e+00  
 1.281645e-05 1.497587e-05 0.000000e+00  
 1.335280e-05 1.431254e-05 0.000000e+00  
 1.440411e-05 1.315060e-05 0.000000e+00  
 1.494280e-05 1.261115e-05 0.000000e+00  
 1.575426e-05 1.179486e-05 0.000000e+00  
 1.285515e-05 1.578145e-05 0.000000e+00  
 1.343674e-05 1.509376e-05 0.000000e+00  
 1.287497e-05 1.537071e-05 0.000000e+00  
 1.342035e-05 1.469874e-05 0.000000e+00  
 1.349420e-05 1.543074e-05 0.000000e+00  
 1.289025e-05 1.611326e-05 0.000000e+00  
 1.353660e-05 1.575973e-05 0.000000e+00  
 1.303533e-05 1.632236e-05 0.000000e+00  
 1.188213e-05 1.831808e-05 0.000000e+00  
 1.252574e-05 1.822045e-05 0.000000e+00  
 1.280816e-05 1.746935e-05 0.000000e+00  
 1.266590e-05 1.737482e-05 0.000000e+00  
 1.370313e-05 1.599332e-05 0.000000e+00  
 1.321507e-05 1.652934e-05 0.000000e+00  
 1.369147e-05 1.638997e-05 0.000000e+00  
 1.383920e-05 1.748584e-05 0.000000e+00  
 1.437887e-05 1.740352e-05 0.000000e+00  
 1.386884e-05 1.834055e-05 0.000000e+00  
 1.416625e-05 1.884856e-05 0.000000e+00  
 1.683700e-05 1.805181e-05 0.000000e+00  
 1.825983e-05 1.831753e-05 0.000000e+00  
 1.613347e-05 1.182782e-05 0.000000e+00  
 1.664080e-05 1.139116e-05 0.000000e+00  
 1.455732e-05 1.343275e-05 0.000000e+00  
 1.508976e-05 1.285021e-05 0.000000e+00  
 1.453356e-05 1.383521e-05 0.000000e+00  
 1.509914e-05 1.319074e-05 0.000000e+00  
 1.625772e-05 1.203282e-05 0.000000e+00  
 1.679621e-05 1.152208e-05 0.000000e+00  
 1.751697e-05 1.069889e-05 0.000000e+00  
 1.789479e-05 1.061145e-05 0.000000e+00  
 1.834822e-05 1.028326e-05 0.000000e+00  
 1.924420e-05 9.733169e-06 0.000000e+00  
 2.087634e-05 8.913157e-06 0.000000e+00  
 1.450395e-05 1.459486e-05 0.000000e+00  
 1.514126e-05 1.387968e-05 0.000000e+00  
 1.455678e-05 1.419393e-05 0.000000e+00  
 1.515236e-05 1.351675e-05 0.000000e+00  
 1.473777e-05 1.475910e-05 0.000000e+00  
 1.524653e-05 1.415701e-05 0.000000e+00  
 1.506387e-05 1.488071e-05 0.000000e+00  
 1.543400e-05 1.435662e-05 0.000000e+00  
 1.570459e-05 1.450996e-05 0.000000e+00  
 1.473575e-05 1.625241e-05 0.000000e+00  
 1.490002e-05 1.635440e-05 0.000000e+00  
 1.494259e-05 1.549595e-05 0.000000e+00  
 1.533176e-05 1.563956e-05 0.000000e+00  
 1.559360e-05 1.489200e-05 0.000000e+00  
 1.728111e-05 1.518207e-05 0.000000e+00  
 1.645479e-05 1.629970e-05 0.000000e+00  
 1.726580e-05 1.635381e-05 0.000000e+00  
 1.690580e-05 1.696471e-05 0.000000e+00  
 1.768590e-05 1.713344e-05 0.000000e+00  
 2.014028e-05 1.638299e-05 0.000000e+00  
 2.190135e-05 1.687473e-05 0.000000e+00  
 1.742425e-05 1.504560e-05 0.000000e+00  
 1.796693e-05 1.075177e-05 0.000000e+00  
 1.851582e-05 1.030742e-05 0.000000e+00  
 1.636710e-05 1.226968e-05 0.000000e+00  
 1.690441e-05 1.172499e-05 0.000000e+00  
 1.617833e-05 1.272589e-05 0.000000e+00  
 1.679622e-05 1.207375e-05 0.000000e+00  
 1.803507e-05 1.093450e-05 0.000000e+00  
 1.858732e-05 1.044613e-05 0.000000e+00  
 2.256661e-05 8.148565e-06 0.000000e+00  
 1.968450e-05 9.503674e-06 0.000000e+00  
 2.003413e-05 9.296926e-06 0.000000e+00  
 1.970557e-05 9.576580e-06 0.000000e+00  
 2.025911e-05 9.201445e-06 0.000000e+00  
 2.147766e-05 8.518129e-06 0.000000e+00  
 2.320733e-05 7.687696e-06 0.000000e+00  
 2.168548e-05 8.425267e-06 0.000000e+00  
 1.629344e-05 1.329513e-05 0.000000e+00  
 1.621341e-05 1.303449e-05 0.000000e+00  
 1.681246e-05 1.270629e-05 0.000000e+00  
 1.686989e-05 1.234084e-05 0.000000e+00  
 1.770936e-05 1.170370e-05 0.000000e+00  
 2.404485e-05 7.553466e-06 0.000000e+00  
 2.470354e-05 7.125771e-06 0.000000e+00  
 2.596264e-05 6.877138e-06 0.000000e+00  
 1.726833e-05 1.324005e-05 0.000000e+00  
 1.696735e-05 1.309587e-05 0.000000e+00  
 1.722718e-05 1.273737e-05 0.000000e+00  
 1.764289e-05 1.275133e-05 0.000000e+00  
 1.817323e-05 1.283957e-05 0.000000e+00  
 1.736912e-05 1.370576e-05 0.000000e+00  
 1.721623e-05 1.431599e-05 0.000000e+00  
 1.799347e-05 1.437428e-05 0.000000e+00  
 1.770174e-05 1.375998e-05 0.000000e+00  
 1.967633e-05 1.321654e-05 0.000000e+00  
 1.970263e-05 1.504106e-05 0.000000e+00  
 1.992691e-05 1.437018e-05 0.000000e+00  
 2.088113e-05 1.521435e-05 0.000000e+00  
 2.294113e-05 1.446208e-05 0.000000e+00  
 2.495059e-05 1.544239e-05 0.000000e+00  
 2.101281e-05 1.348331e-05 0.000000e+00  
 2.105536e-05 1.293114e-05 0.000000e+00  
 1.972294e-05 9.707076e-06 0.000000e+00  
 2.026810e-05 9.288285e-06 0.000000e+00  
 1.818624e-05 1.109130e-05 0.000000e+00  
 1.872685e-05 1.058091e-05 0.000000e+00  
 1.843004e-05 1.098768e-05 0.000000e+00  
 1.978920e-05 9.845432e-06 0.000000e+00  
 2.030067e-05 9.406495e-06 0.000000e+00  
 2.337594e-05 7.600898e-06 0.000000e+00  
 2.446399e-05 7.136982e-06 0.000000e+00  
 2.204189e-05 8.196446e-06 0.000000e+00  
 2.145113e-05 8.521774e-06 0.000000e+00  
 2.198333e-05 8.235983e-06 0.000000e+00  
 2.145264e-05 8.573805e-06 0.000000e+00  
 2.318287e-05 7.593772e-06 0.000000e+00  
 2.374264e-05 7.337987e-06 0.000000e+00  
 1.833463e-05 1.181573e-05 0.000000e+00  
 1.815970e-05 1.166384e-05 0.000000e+00  
 1.845413e-05 1.149229e-05 0.000000e+00  
 1.844187e-05 1.126903e-05 0.000000e+00  
 1.988642e-05 1.001568e-05 0.000000e+00  
 1.959248e-05 1.039204e-05 0.000000e+00  
 2.628862e-05 6.489846e-06 0.000000e+00  
 2.548247e-05 6.602212e-06 0.000000e+00  
 2.641010e-05 6.287353e-06 0.000000e+00  
 2.760682e-05 6.024180e-06 0.000000e+00  
 2.802302e-05 5.976794e-06 0.000000e+00  
 2.757456e-05 6.381559e-06 0.000000e+00  
 1.904186e-05 1.219696e-05 0.000000e+00  
 1.904163e-05 1.167489e-05 0.000000e+00  
 1.985607e-05 1.133233e-05 0.000000e+00  
 1.962257e-05 1.104456e-05 0.000000e+00  
 1.943364e-05 1.109577e-05 0.000000e+00  
 1.977590e-05 1.237368e-05 0.000000e+00  
 2.020753e-05 1.172841e-05 0.000000e+00  
 2.021428e-05 1.233477e-05 0.000000e+00  
 2.221869e-05 1.116114e-05 0.000000e+00  
 2.260840e-05 1.164547e-05 0.000000e+00  
 2.324910e-05 1.294779e-05 0.000000e+00  
 2.374253e-05 1.342204e-05 0.000000e+00  
 2.624913e-05 1.281890e-05 0.000000e+00  
 2.773967e-05 1.397157e-05 0.000000e+00  
 2.401292e-05 1.113082e-05 0.000000e+00  
 2.450501e-05 1.150989e-05 0.000000e+00  
 2.147972e-05 8.658384e-06 0.000000e+00  
 2.197826e-05 8.300185e-06 0.000000e+00  
 2.055018e-05 9.422914e-06 0.000000e+00  
 2.022451e-05 9.759406e-06 0.000000e+00  
 2.162469e-05 8.694634e-06 0.000000e+00  
 2.201722e-05 8.378952e-06 0.000000e+00  
 2.494858e-05 6.742793e-06 0.000000e+00  
 2.553237e-05 6.517237e-06 0.000000e+00  
 2.668977e-05 5.965366e-06 0.000000e+00  
 2.364974e-05 7.321148e-06 0.000000e+00  
 2.317790e-05 7.569688e-06 0.000000e+00  
 2.366357e-05 7.308565e-06 0.000000e+00  
 2.318301e-05 7.593961e-06 0.000000e+00  
 2.488779e-05 6.684023e-06 0.000000e+00  
 2.526680e-05 6.519421e-06 0.000000e+00  
 2.041273e-05 9.902114e-06 0.000000e+00  
 2.057921e-05 1.003028e-05 0.000000e+00  
 2.010946e-05 1.027032e-05 0.000000e+00  
 2.156880e-05 9.053530e-06 0.000000e+00  
 2.159654e-05 8.904841e-06 0.000000e+00  
 2.820286e-05 5.609983e-06 0.000000e+00  
 2.751301e-05 5.767391e-06 0.000000e+00  
 2.755443e-05 5.700294e-06 0.000000e+00  
 2.931960e-05 5.924547e-06 0.000000e+00  
 2.885082e-05 5.373393e-06 0.000000e+00  
 2.950971e-05 5.276100e-06 0.000000e+00  
 2.913402e-05 5.590191e-06 0.000000e+00  
 2.964279e-05 5.553447e-06 0.000000e+00  
 2.137614e-05 1.083484e-05 0.000000e+00  
 2.095018e-05 1.055294e-05 0.000000e+00  
 2.172452e-05 1.026707e-05 0.000000e+00  
 2.131930e-05 9.892125e-06 0.000000e+00  
 2.164021e-05 9.835952e-06 0.000000e+00  
 2.134652e-05 9.515443e-06 0.000000e+00  
 2.190017e-05 9.341694e-06 0.000000e+00  
 2.284475e-05 1.052515e-05 0.000000e+00  
 2.275284e-05 1.024009e-05 0.000000e+00  
 2.484481e-05 9.571401e-06 0.000000e+00  
 2.523531e-05 9.864857e-06 0.000000e+00  
 2.643879e-05 1.095009e-05 0.000000e+00  
 2.711377e-05 1.149386e-05 0.000000e+00  
 2.913025e-05 1.103521e-05 0.000000e+00  
 3.050076e-05 1.230790e-05 0.000000e+00  
 2.690696e-05 9.218282e-06 0.000000e+00  
 2.745421e-05 9.621492e-06 0.000000e+00  
 2.369807e-05 7.331025e-06 0.000000e+00  
 2.325665e-05 7.619388e-06 0.000000e+00  
 2.266411e-05 8.133429e-06 0.000000e+00  
 2.267817e-05 8.112336e-06 0.000000e+00  
 2.376028e-05 7.377008e-06 0.000000e+00  
 2.661209e-05 5.883642e-06 0.000000e+00  
 2.694510e-05 5.776005e-06 0.000000e+00  
 2.852850e-05 5.226919e-06 0.000000e+00  
 2.826142e-05 5.213694e-06 0.000000e+00  
 2.486387e-05 6.659181e-06 0.000000e+00  
 2.531747e-05 6.434006e-06 0.000000e+00  
 2.482872e-05 6.690439e-06 0.000000e+00  
 2.532266e-05 6.413770e-06 0.000000e+00  
 2.650473e-05 5.844645e-06 0.000000e+00  
 2.696623e-05 5.662539e-06 0.000000e+00  
 2.223451e-05 8.654428e-06 0.000000e+00  
 2.234831e-05 8.728094e-06 0.000000e+00  
 2.339603e-05 8.090402e-06 0.000000e+00  
 2.370249e-05 7.563163e-06 0.000000e+00  
 2.347984e-05 7.788181e-06 0.000000e+00  
 0.000000e+00 -2.246439e-05 0.000000e+00  
 0.000000e+00 -2.142516e-05 0.000000e+00  
 3.099444e-05 5.556041e-06 0.000000e+00  
 2.943708e-05 4.921453e-06 0.000000e+00  
 2.958247e-05 4.941465e-06 0.000000e+00  
 3.071090e-05 5.203309e-06 0.000000e+00  
 3.126163e-05 5.173771e-06 0.000000e+00  
 3.071634e-05 4.641817e-06 0.000000e+00  
 3.097704e-05 4.892531e-06 0.000000e+00  
 3.038515e-05 4.969167e-06 0.000000e+00  
 2.396925e-05 9.173576e-06 0.000000e+00  
 2.358741e-05 8.948850e-06 0.000000e+00  
 2.333397e-05 8.748978e-06 0.000000e+00  
 2.381681e-05 8.321143e-06 0.000000e+00  
 2.350771e-05 8.251766e-06 0.000000e+00  
 2.364418e-05 8.137431e-06 0.000000e+00  
 2.573890e-05 8.614853e-06 0.000000e+00  
 2.531735e-05 8.475833e-06 0.000000e+00  
 2.788673e-05 8.118131e-06 0.000000e+00  
 2.734083e-05 7.832346e-06 0.000000e+00  
 2.928823e-05 9.024282e-06 0.000000e+00  
 2.998921e-05 9.656690e-06 0.000000e+00  
 3.169031e-05 9.228256e-06 0.000000e+00  
 3.289036e-05 1.065362e-05 0.000000e+00  
 3.011762e-05 7.873900e-06 0.000000e+00  
 2.948309e-05 7.432339e-06 0.000000e+00  
 2.469464e-05 6.833558e-06 0.000000e+00  
 2.538311e-05 6.406194e-06 0.000000e+00  
 2.504902e-05 6.660710e-06 0.000000e+00  
 2.467429e-05 6.944590e-06 0.000000e+00  
 2.821178e-05 5.096809e-06 0.000000e+00  
 2.867512e-05 4.990871e-06 0.000000e+00  
 3.013958e-05 4.552432e-06 0.000000e+00  
 2.953254e-05 4.650582e-06 0.000000e+00  
 2.653405e-05 5.784642e-06 0.000000e+00  
 2.698842e-05 5.576112e-06 0.000000e+00  
 2.635613e-05 5.877637e-06 0.000000e+00  
 2.695680e-05 5.562262e-06 0.000000e+00  
 2.854344e-05 4.912381e-06 0.000000e+00  
 2.803001e-05 5.084904e-06 0.000000e+00  
 2.456217e-05 7.207281e-06 0.000000e+00  
 2.451122e-05 7.286324e-06 0.000000e+00  
 2.517675e-05 7.135559e-06 0.000000e+00  
 2.554188e-05 6.769555e-06 0.000000e+00  
 2.569024e-05 6.453497e-06 0.000000e+00  
 2.573106e-05 6.385134e-06 0.000000e+00  
 0.000000e+00 -2.310269e-05 0.000000e+00  
 2.197228e-06 -2.235597e-05 0.000000e+00  
 2.616310e-06 -2.265355e-05 0.000000e+00  
 1.313593e-06 -2.301853e-05 0.000000e+00  
 3.474387e-06 -2.201803e-05 0.000000e+00  
 3.742185e-06 -2.127075e-05 0.000000e+00  
 3.258067e-05 5.266622e-06 0.000000e+00  
 3.221190e-05 4.887894e-06 0.000000e+00  
 3.282219e-05 4.876936e-06 0.000000e+00  
 3.084424e-05 4.303352e-06 0.000000e+00  
 3.115235e-05 4.472527e-06 0.000000e+00  
 3.146835e-05 4.237543e-06 0.000000e+00  
 3.181261e-05 4.620375e-06 0.000000e+00  
 3.247339e-05 4.574186e-06 0.000000e+00  
 3.212800e-05 4.325315e-06 0.000000e+00  
 3.411930e-05 5.038231e-06 0.000000e+00  
 2.556330e-05 7.638995e-06 0.000000e+00  
 2.625857e-05 7.572443e-06 0.000000e+00  
 2.600009e-05 7.174606e-06 0.000000e+00  
 2.548090e-05 7.289914e-06 0.000000e+00  
 2.601724e-05 6.769311e-06 0.000000e+00  
 2.813962e-05 7.030758e-06 0.000000e+00  
 2.752658e-05 6.863548e-06 0.000000e+00  
 2.962920e-05 6.269867e-06 0.000000e+00  
 3.026224e-05 6.548280e-06 0.000000e+00  
 3.178721e-05 7.220737e-06 0.000000e+00  
 3.251546e-05 7.926284e-06 0.000000e+00  
 3.385121e-05 7.501439e-06 0.000000e+00  
 3.492632e-05 9.013601e-06 0.000000e+00  
 3.244056e-05 6.296965e-06 0.000000e+00  
 3.173446e-05 5.860278e-06 0.000000e+00  
 2.700321e-05 5.553846e-06 0.000000e+00  
 2.650859e-05 5.842468e-06 0.000000e+00  
 2.680031e-05 5.731064e-06 0.000000e+00  
 2.769257e-05 5.195539e-06 0.000000e+00  
 3.140855e-05 4.003912e-06 0.000000e+00  
 3.214083e-05 3.759475e-06 0.000000e+00  
 2.972361e-05 4.403928e-06 0.000000e+00  
 3.022527e-05 4.299390e-06 0.000000e+00  
 3.084837e-05 4.074642e-06 0.000000e+00  
 2.865403e-05 4.764310e-06 0.000000e+00  
 2.811321e-05 4.989212e-06 0.000000e+00  
 2.844129e-05 4.823127e-06 0.000000e+00  
 2.940865e-05 4.430278e-06 0.000000e+00  
 2.997728e-05 4.265663e-06 0.000000e+00  
 2.694821e-05 6.188671e-06 0.000000e+00  
 2.667543e-05 6.060978e-06 0.000000e+00  
 2.688587e-05 5.837875e-06 0.000000e+00  
 2.736532e-05 5.739754e-06 0.000000e+00  
 2.765924e-05 5.280750e-06 0.000000e+00  
 2.776169e-05 5.312446e-06 0.000000e+00  
 0.000000e+00 -2.350234e-05 0.000000e+00  
 0.000000e+00 -2.382303e-05 0.000000e+00  
 0.000000e+00 -2.413470e-05 0.000000e+00  
 2.259204e-06 -2.310234e-05 0.000000e+00  
 1.656106e-06 -2.336041e-05 0.000000e+00  
 7.944334e-06 -2.077032e-05 0.000000e+00  
 5.000531e-06 -2.212923e-05 0.000000e+00  
 3.745624e-06 -2.271896e-05 0.000000e+00  
 5.640591e-06 -2.173276e-05 0.000000e+00  
 4.108010e-06 -2.240295e-05 0.000000e+00  