# vtk DataFile Version 1.0 
PolyMesh 
ASCII 
 
DATASET POLYDATA 
 
POINTS 282 float 
3.500000e+01 1.500000e+00 0.000000e+00  
 3.201935e+01 1.500000e+00 0.000000e+00  
 3.500000e+01 4.833333e+00 0.000000e+00  
 3.252226e+01 3.930577e+00 0.000000e+00  
 2.903869e+01 1.500000e+00 0.000000e+00  
 3.245078e+01 6.908979e+00 0.000000e+00  
 2.994271e+01 5.421184e+00 0.000000e+00  
 3.500000e+01 8.166667e+00 0.000000e+00  
 2.762017e+01 4.404555e+00 0.000000e+00  
 2.994036e+01 8.392804e+00 0.000000e+00  
 2.793285e+01 6.966567e+00 0.000000e+00  
 2.605804e+01 1.500000e+00 0.000000e+00  
 2.566399e+01 3.536196e+00 0.000000e+00  
 3.500000e+01 1.150000e+01 0.000000e+00  
 2.578796e+01 5.510749e+00 0.000000e+00  
 3.201935e+01 1.150000e+01 0.000000e+00  
 2.762358e+01 9.227553e+00 0.000000e+00  
 2.393374e+01 3.172624e+00 0.000000e+00  
 2.592572e+01 8.052443e+00 0.000000e+00  
 2.413487e+01 4.423759e+00 0.000000e+00  
 2.903869e+01 1.150000e+01 0.000000e+00  
 2.328322e+01 1.500000e+00 0.000000e+00  
 2.448149e+01 6.871047e+00 0.000000e+00  
 2.560168e+01 9.646540e+00 0.000000e+00  
 2.257739e+01 3.968213e+00 0.000000e+00  
 2.287884e+01 5.451214e+00 0.000000e+00  
 2.227593e+01 2.485213e+00 0.000000e+00  
 2.413487e+01 8.576241e+00 0.000000e+00  
 2.605804e+01 1.150000e+01 0.000000e+00  
 2.287884e+01 7.548786e+00 0.000000e+00  
 2.129981e+01 1.500000e+00 0.000000e+00  
 2.191203e+01 6.242073e+00 0.000000e+00  
 2.148502e+01 4.861787e+00 0.000000e+00  
 2.122285e+01 3.572028e+00 0.000000e+00  
 2.383342e+01 1.005924e+01 0.000000e+00  
 2.257739e+01 9.031786e+00 0.000000e+00  
 2.064378e+01 5.549933e+00 0.000000e+00  
 2.027282e+01 4.349165e+00 0.000000e+00  
 2.004481e+01 3.227467e+00 0.000000e+00  
 2.148502e+01 8.138213e+00 0.000000e+00  
 1.981777e+01 1.500000e+00 0.000000e+00  
 2.328322e+01 1.150000e+01 0.000000e+00  
 2.064378e+01 7.450067e+00 0.000000e+00  
 2.227593e+01 1.051479e+01 0.000000e+00  
 1.954036e+01 4.948323e+00 0.000000e+00  
 1.985330e+01 6.165397e+00 0.000000e+00  
 2.122285e+01 9.427972e+00 0.000000e+00  
 1.921857e+01 3.903339e+00 0.000000e+00  
 1.903083e+01 2.718933e+00 0.000000e+00  
 1.867289e+01 1.500000e+00 0.000000e+00  
 2.027282e+01 8.650835e+00 0.000000e+00  
 1.857990e+01 4.425787e+00 0.000000e+00  
 1.878035e+01 5.511202e+00 0.000000e+00  
 1.954036e+01 8.051677e+00 0.000000e+00  
 1.830170e+01 3.515607e+00 0.000000e+00  
 1.810491e+01 2.475578e+00 0.000000e+00  
 2.129981e+01 1.150000e+01 0.000000e+00  
 2.004481e+01 9.772533e+00 0.000000e+00  
 1.776543e+01 1.500000e+00 0.000000e+00  
 1.774291e+01 3.972706e+00 0.000000e+00  
 1.785079e+01 4.916026e+00 0.000000e+00  
 1.841306e+01 7.047846e+00 0.000000e+00  
 1.921857e+01 9.096661e+00 0.000000e+00  
 1.750430e+01 3.178398e+00 0.000000e+00  
 1.735431e+01 2.440531e+00 0.000000e+00  
 1.857990e+01 8.574213e+00 0.000000e+00  
 1.703133e+01 1.500000e+00 0.000000e+00  
 1.701165e+01 3.581401e+00 0.000000e+00  
 1.736386e+01 5.839788e+00 0.000000e+00  
 1.981777e+01 1.150000e+01 0.000000e+00  
 1.903083e+01 1.028107e+01 0.000000e+00  
 1.681080e+01 2.885128e+00 0.000000e+00  
 1.694133e+01 4.514339e+00 0.000000e+00  
 1.668036e+01 2.243408e+00 0.000000e+00  
 1.771186e+01 7.970310e+00 0.000000e+00  
 1.830170e+01 9.484393e+00 0.000000e+00  
 1.642760e+01 1.500000e+00 0.000000e+00  
 1.656989e+01 3.942824e+00 0.000000e+00  
 1.636898e+01 3.246567e+00 0.000000e+00  
 1.620767e+01 2.630073e+00 0.000000e+00  
 1.774291e+01 9.027294e+00 0.000000e+00  
 1.706178e+01 7.222331e+00 0.000000e+00  
 1.609422e+01 2.071971e+00 0.000000e+00  
 1.592432e+01 1.500000e+00 0.000000e+00  
 1.624988e+01 5.194280e+00 0.000000e+00  
 1.607729e+01 4.345887e+00 0.000000e+00  
 1.867289e+01 1.150000e+01 0.000000e+00  
 1.810491e+01 1.052442e+01 0.000000e+00  
 1.592719e+01 3.608043e+00 0.000000e+00  
 1.579665e+01 2.966342e+00 0.000000e+00  
 1.568313e+01 2.408256e+00 0.000000e+00  
 1.628940e+01 6.500000e+00 0.000000e+00  
 1.750430e+01 9.821602e+00 0.000000e+00  
 1.692149e+01 8.469424e+00 0.000000e+00  
 1.558447e+01 1.922853e+00 0.000000e+00  
 1.550000e+01 1.500000e+00 0.000000e+00  
 1.701165e+01 9.418599e+00 0.000000e+00  
 1.532402e+01 3.353079e+00 0.000000e+00  
 1.527208e+01 2.744601e+00 0.000000e+00  
 1.538375e+01 4.052722e+00 0.000000e+00  
 1.624988e+01 7.805719e+00 0.000000e+00  
 1.522688e+01 2.215407e+00 0.000000e+00  
 1.545243e+01 4.857192e+00 0.000000e+00  
 1.516765e+01 1.741723e+00 0.000000e+00  
 1.735431e+01 1.055947e+01 0.000000e+00  
 1.514645e+01 1.353553e+00 0.000000e+00  
 1.656989e+01 9.057176e+00 0.000000e+00  
 1.776543e+01 1.150000e+01 0.000000e+00  
 1.553139e+01 5.782193e+00 0.000000e+00  
 1.500000e+01 1.000000e+00 0.000000e+00  
 1.500000e+01 5.430855e-01 0.000000e+00  
 1.500000e+01 0.000000e+00 0.000000e+00  
 1.681080e+01 1.011487e+01 0.000000e+00  
 1.481605e+01 2.552024e+00 0.000000e+00  
 1.477758e+01 1.435666e+00 0.000000e+00  
 1.607729e+01 8.654113e+00 0.000000e+00  
 1.483390e+01 3.145992e+00 0.000000e+00  
 1.477051e+01 2.022860e+00 0.000000e+00  
 1.553139e+01 7.217807e+00 0.000000e+00  
 1.483720e+01 3.821736e+00 0.000000e+00  
 1.636898e+01 9.753432e+00 0.000000e+00  
 1.483243e+01 4.595137e+00 0.000000e+00  
 1.457715e+01 9.155349e-01 0.000000e+00  
 1.447714e+01 1.729492e+00 0.000000e+00  
 1.668036e+01 1.075659e+01 0.000000e+00  
 1.448300e+01 4.434491e-01 0.000000e+00  
 1.703133e+01 1.150000e+01 0.000000e+00  
 1.592719e+01 9.391957e+00 0.000000e+00  
 1.545243e+01 8.142808e+00 0.000000e+00  
 1.428459e+01 1.273120e+00 0.000000e+00  
 1.426758e+01 2.232425e+00 0.000000e+00  
 1.459841e+01 5.276136e+00 0.000000e+00  
 1.428111e+01 0.000000e+00 0.000000e+00  
 1.620767e+01 1.036993e+01 0.000000e+00  
 1.424594e+01 2.866402e+00 0.000000e+00  
 1.480939e+01 6.502212e+00 0.000000e+00  
 1.427315e+01 3.567179e+00 0.000000e+00  
 1.409174e+01 8.168745e-01 0.000000e+00  
 1.426136e+01 4.345477e+00 0.000000e+00  
 1.538375e+01 8.947278e+00 0.000000e+00  
 1.579665e+01 1.003366e+01 0.000000e+00  
 1.394798e+01 1.683946e+00 0.000000e+00  
 1.394802e+01 3.852000e-01 0.000000e+00  
 1.642760e+01 1.150000e+01 0.000000e+00  
 1.609422e+01 1.092803e+01 0.000000e+00  
 1.375540e+01 1.227923e+00 0.000000e+00  
 1.532402e+01 9.646921e+00 0.000000e+00  
 1.568313e+01 1.059174e+01 0.000000e+00  
 1.483053e+01 8.540014e+00 0.000000e+00  
 1.363360e+01 2.254060e+00 0.000000e+00  
 1.353366e+01 7.033482e-01 0.000000e+00  
 1.592432e+01 1.150000e+01 0.000000e+00  
 1.483720e+01 9.178264e+00 0.000000e+00  
 1.527208e+01 1.025540e+01 0.000000e+00  
 1.350146e+01 3.944726e+00 0.000000e+00  
 1.340555e+01 0.000000e+00 0.000000e+00  
 1.335401e+01 1.666104e+00 0.000000e+00  
 1.558447e+01 1.107715e+01 0.000000e+00  
 1.338913e+01 3.043700e+00 0.000000e+00  
 1.421792e+01 7.777199e+00 0.000000e+00  
 1.483390e+01 9.854008e+00 0.000000e+00  
 1.522688e+01 1.078459e+01 0.000000e+00  
 1.314692e+01 1.175977e+00 0.000000e+00  
 1.340577e+01 4.934715e+00 0.000000e+00  
 1.435688e+01 8.775787e+00 0.000000e+00  
 1.550000e+01 1.150000e+01 0.000000e+00  
 1.350024e+01 6.218705e+00 0.000000e+00  
 1.296903e+01 5.991150e-01 0.000000e+00  
 1.481605e+01 1.044798e+01 0.000000e+00  
 1.293282e+01 2.226845e+00 0.000000e+00  
 1.427315e+01 9.432821e+00 0.000000e+00  
 1.506433e+01 1.127758e+01 0.000000e+00  
 1.514645e+01 1.164645e+01 0.000000e+00  
 1.267826e+01 1.662805e+00 0.000000e+00  
 1.477051e+01 1.097714e+01 0.000000e+00  
 1.268627e+01 3.572302e+00 0.000000e+00  
 1.424594e+01 1.013360e+01 0.000000e+00  
 1.244728e+01 1.116250e+00 0.000000e+00  
 1.500000e+01 1.200000e+01 0.000000e+00  
 1.245064e+01 2.874385e+00 0.000000e+00  
 1.362562e+01 8.950635e+00 0.000000e+00  
 1.475828e+01 1.166765e+01 0.000000e+00  
 1.305736e+01 7.265363e+00 0.000000e+00  
 1.426758e+01 1.076758e+01 0.000000e+00  
 1.447714e+01 1.127051e+01 0.000000e+00  
 1.231174e+01 0.000000e+00 0.000000e+00  
 1.500000e+01 1.246412e+01 0.000000e+00  
 1.215452e+01 2.238637e+00 0.000000e+00  
 1.232560e+01 4.517266e+00 0.000000e+00  
 1.457715e+01 1.208447e+01 0.000000e+00  
 1.297266e+01 8.294004e+00 0.000000e+00  
 1.224755e+01 5.305981e+00 0.000000e+00  
 1.500000e+01 1.300000e+01 0.000000e+00  
 1.190486e+01 1.667573e+00 0.000000e+00  
 1.428459e+01 1.172688e+01 0.000000e+00  
 1.345630e+01 9.889126e+00 0.000000e+00  
 1.394798e+01 1.131605e+01 0.000000e+00  
 1.182052e+01 3.533625e+00 0.000000e+00  
 1.363360e+01 1.074594e+01 0.000000e+00  
 1.171089e+01 8.615981e-01 0.000000e+00  
 1.292770e+01 9.186274e+00 0.000000e+00  
 1.442803e+01 1.259422e+01 0.000000e+00  
 1.207276e+01 6.532508e+00 0.000000e+00  
 1.148100e+01 2.490568e+00 0.000000e+00  
 1.405246e+01 1.224572e+01 0.000000e+00  
 1.443084e+01 1.300000e+01 0.000000e+00  
 1.375540e+01 1.177208e+01 0.000000e+00  
 1.335401e+01 1.133390e+01 0.000000e+00  
 1.202461e+01 7.758957e+00 0.000000e+00  
 1.125896e+01 4.475388e+00 0.000000e+00  
 1.293282e+01 1.077315e+01 0.000000e+00  
 1.255527e+01 1.000146e+01 0.000000e+00  
 1.098947e+01 1.524168e+00 0.000000e+00  
 1.090108e+01 0.000000e+00 0.000000e+00  
 1.198273e+01 8.825595e+00 0.000000e+00  
 1.314692e+01 1.182402e+01 0.000000e+00  
 1.340339e+01 1.235554e+01 0.000000e+00  
 1.373594e+01 1.300000e+01 0.000000e+00  
 1.072068e+01 3.271843e+00 0.000000e+00  
 1.267826e+01 1.133720e+01 0.000000e+00  
 1.104002e+01 7.026102e+00 0.000000e+00  
 1.286277e+01 1.229142e+01 0.000000e+00  
 1.215452e+01 1.076136e+01 0.000000e+00  
 1.025050e+01 2.238275e+00 0.000000e+00  
 1.052610e+01 5.459980e+00 0.000000e+00  
 1.244728e+01 1.188375e+01 0.000000e+00  
 1.162846e+01 9.998311e+00 0.000000e+00  
 1.286687e+01 1.300000e+01 0.000000e+00  
 9.916336e+00 1.153071e+00 0.000000e+00  
 1.190486e+01 1.133243e+01 0.000000e+00  
 1.004514e+01 4.400800e+00 0.000000e+00  
 1.091417e+01 8.709353e+00 0.000000e+00  
 1.231911e+01 1.245267e+01 0.000000e+00  
 1.176106e+01 1.199394e+01 0.000000e+00  
 9.497259e+00 3.204665e+00 0.000000e+00  
 1.124336e+01 1.115829e+01 0.000000e+00  
[...]
 POINT_DATA 282 
 VECTORS Displacement float 
 -1.093511e-02 -4.870355e-02 0.000000e+00  
 -1.080672e-02 -4.189483e-02 0.000000e+00  
 -3.588804e-03 -4.864876e-02 0.000000e+00  
 -5.513742e-03 -4.296542e-02 0.000000e+00  
 -1.048713e-02 -3.515534e-02 0.000000e+00  
 8.568816e-04 -4.279032e-02 0.000000e+00  
 -2.237361e-03 -3.710130e-02 0.000000e+00  
 3.600436e-03 -4.865714e-02 0.000000e+00  
 -4.210198e-03 -3.194922e-02 0.000000e+00  
 3.953552e-03 -3.709018e-02 0.000000e+00  
 9.494807e-04 -3.260872e-02 0.000000e+00  
 -9.956049e-03 -2.874285e-02 0.000000e+00  
 -5.722290e-03 -2.781705e-02 0.000000e+00  
 1.092473e-02 -4.871934e-02 0.000000e+00  
 -1.901189e-03 -2.800469e-02 0.000000e+00  
 1.080934e-02 -4.185458e-02 0.000000e+00  
 5.506950e-03 -3.198074e-02 0.000000e+00  
 -6.122397e-03 -2.428953e-02 0.000000e+00  
 3.008077e-03 -2.831387e-02 0.000000e+00  
 -3.816019e-03 -2.463445e-02 0.000000e+00  
 1.050907e-02 -3.518462e-02 0.000000e+00  
 -9.191023e-03 -2.313616e-02 0.000000e+00  
 6.899932e-04 -2.529437e-02 0.000000e+00  
 6.082104e-03 -2.769502e-02 0.000000e+00  
 -4.414924e-03 -2.159889e-02 0.000000e+00  
 -1.838869e-03 -2.211849e-02 0.000000e+00  
 -7.018752e-03 -2.111384e-02 0.000000e+00  
 3.823950e-03 -2.463625e-02 0.000000e+00  
 9.954051e-03 -2.874049e-02 0.000000e+00  
 1.844939e-03 -2.212629e-02 0.000000e+00  
 -8.454917e-03 -1.940439e-02 0.000000e+00  
 -4.339679e-04 -2.026495e-02 0.000000e+00  
 -2.714049e-03 -1.950745e-02 0.000000e+00  
 -4.838570e-03 -1.909734e-02 0.000000e+00  
 6.547130e-03 -2.410876e-02 0.000000e+00  
 4.423081e-03 -2.160187e-02 0.000000e+00  
 -1.509617e-03 -1.797046e-02 0.000000e+00  
 -3.370528e-03 -1.735898e-02 0.000000e+00  
 -5.107327e-03 -1.703710e-02 0.000000e+00  
 2.723130e-03 -1.951401e-02 0.000000e+00  
 -7.894013e-03 -1.684352e-02 0.000000e+00  
 9.191322e-03 -2.313530e-02 0.000000e+00  
 1.510407e-03 -1.796342e-02 0.000000e+00  
 7.022786e-03 -2.112100e-02 0.000000e+00  
 -2.329831e-03 -1.608036e-02 0.000000e+00  
 -5.096686e-04 -1.657888e-02 0.000000e+00  
 4.845005e-03 -1.910266e-02 0.000000e+00  
 -3.849993e-03 -1.559811e-02 0.000000e+00  
 -5.605053e-03 -1.538146e-02 0.000000e+00  
 -7.393684e-03 -1.495369e-02 0.000000e+00  
 3.377296e-03 -1.735892e-02 0.000000e+00  
 -2.950467e-03 -1.453233e-02 0.000000e+00  
 -1.417474e-03 -1.481685e-02 0.000000e+00  
 2.336494e-03 -1.608162e-02 0.000000e+00  
 -4.194493e-03 -1.414364e-02 0.000000e+00  
 -5.641736e-03 -1.393042e-02 0.000000e+00  
 8.459915e-03 -1.941080e-02 0.000000e+00  
 5.113353e-03 -1.703937e-02 0.000000e+00  
 -6.957090e-03 -1.353638e-02 0.000000e+00  
 -3.416290e-03 -1.325260e-02 0.000000e+00  
 -2.151203e-03 -1.338267e-02 0.000000e+00  
 7.653600e-04 -1.421482e-02 0.000000e+00  
 3.856368e-03 -1.559988e-02 0.000000e+00  
 -4.432650e-03 -1.294210e-02 0.000000e+00  
 -5.392232e-03 -1.278962e-02 0.000000e+00  
 2.958011e-03 -1.453462e-02 0.000000e+00  
 -6.581915e-03 -1.244157e-02 0.000000e+00  
 -3.759232e-03 -1.219546e-02 0.000000e+00  
 -8.745531e-04 -1.262965e-02 0.000000e+00  
 7.900007e-03 -1.684624e-02 0.000000e+00  
 5.611023e-03 -1.538360e-02 0.000000e+00  
 -4.591456e-03 -1.194867e-02 0.000000e+00  
 -2.544934e-03 -1.205699e-02 0.000000e+00  
 -5.366425e-03 -1.182031e-02 0.000000e+00  
 1.983964e-03 -1.316638e-02 0.000000e+00  
 4.200718e-03 -1.414567e-02 0.000000e+00  
 -6.239801e-03 -1.156745e-02 0.000000e+00  
 -3.195963e-03 -1.155937e-02 0.000000e+00  
 -4.000099e-03 -1.130868e-02 0.000000e+00  
 -4.688218e-03 -1.111878e-02 0.000000e+00  
 3.422854e-03 -1.325416e-02 0.000000e+00  
 9.395447e-04 -1.220351e-02 0.000000e+00  
 -5.302204e-03 -1.100627e-02 0.000000e+00  
 -5.912424e-03 -1.085447e-02 0.000000e+00  
 -1.600054e-03 -1.109662e-02 0.000000e+00  
 -2.607342e-03 -1.088752e-02 0.000000e+00  
 7.399757e-03 -1.495593e-02 0.000000e+00  
 5.647676e-03 -1.393265e-02 0.000000e+00  
 -3.451522e-03 -1.071058e-02 0.000000e+00  
 -4.157798e-03 -1.056023e-02 0.000000e+00  
 -4.740181e-03 -1.043159e-02 0.000000e+00  
 1.584020e-06 -1.113628e-02 0.000000e+00  
 4.438366e-03 -1.294420e-02 0.000000e+00  
 2.523694e-03 -1.202842e-02 0.000000e+00  
 -5.206511e-03 -1.032419e-02 0.000000e+00  
 -5.567825e-03 -1.026222e-02 0.000000e+00  
 3.764540e-03 -1.219747e-02 0.000000e+00  
 -3.591431e-03 -9.971130e-03 0.000000e+00  
 -4.237107e-03 -9.926556e-03 0.000000e+00  
 -2.819099e-03 -1.002419e-02 0.000000e+00  
 1.602760e-03 -1.109782e-02 0.000000e+00  
 -4.763512e-03 -9.887256e-03 0.000000e+00  
 -1.906857e-03 -1.008900e-02 0.000000e+00  
 -5.160760e-03 -9.828080e-03 0.000000e+00  
 5.398153e-03 -1.279186e-02 0.000000e+00  
 -5.345666e-03 -9.801892e-03 0.000000e+00  
 3.199893e-03 -1.156064e-02 0.000000e+00  
 6.963309e-03 -1.353861e-02 0.000000e+00  
 -8.369737e-04 -1.017092e-02 0.000000e+00  
 -5.367199e-03 -9.626542e-03 0.000000e+00  
 -5.580020e-03 -9.612697e-03 0.000000e+00  
 -5.958594e-03 -9.620239e-03 0.000000e+00  
 4.596946e-03 -1.195082e-02 0.000000e+00  
 -4.282873e-03 -9.434669e-03 0.000000e+00  
 -5.181069e-03 -9.483401e-03 0.000000e+00  
 2.609604e-03 -1.088973e-02 0.000000e+00  
 -3.682683e-03 -9.421423e-03 0.000000e+00  
 -4.760542e-03 -9.425240e-03 0.000000e+00  
 8.414732e-04 -1.016949e-02 0.000000e+00  
 -2.961424e-03 -9.395885e-03 0.000000e+00  
 4.005005e-03 -1.131061e-02 0.000000e+00  
 -2.112599e-03 -9.364239e-03 0.000000e+00  
 -5.355040e-03 -9.320443e-03 0.000000e+00  
 -4.862895e-03 -9.176316e-03 0.000000e+00  
 5.372573e-03 -1.182241e-02 0.000000e+00  
 -5.630244e-03 -9.240565e-03 0.000000e+00  
 6.588401e-03 -1.244366e-02 0.000000e+00  
 3.455623e-03 -1.071277e-02 0.000000e+00  
 1.905850e-03 -1.009080e-02 0.000000e+00  
 -5.101096e-03 -9.044917e-03 0.000000e+00  
 -4.381630e-03 -8.914315e-03 0.000000e+00  
 -1.340458e-03 -9.072219e-03 0.000000e+00  
 -5.959408e-03 -9.081366e-03 0.000000e+00  
 4.693751e-03 -1.112070e-02 0.000000e+00  
 -3.788299e-03 -8.826149e-03 0.000000e+00  
 5.360248e-06 -9.309366e-03 0.000000e+00  
 -3.097795e-03 -8.796690e-03 0.000000e+00  
 -5.335243e-03 -8.893004e-03 0.000000e+00  
 -2.286102e-03 -8.740386e-03 0.000000e+00  
 2.822495e-03 -1.002731e-02 0.000000e+00  
 4.162848e-03 -1.056229e-02 0.000000e+00  
 -4.704347e-03 -8.672389e-03 0.000000e+00  
 -5.621727e-03 -8.775694e-03 0.000000e+00  
 6.246693e-03 -1.156906e-02 0.000000e+00  
 5.308965e-03 -1.100789e-02 0.000000e+00  
 -4.973042e-03 -8.538244e-03 0.000000e+00  
 3.595825e-03 -9.973806e-03 0.000000e+00  
 4.745958e-03 -1.043316e-02 0.000000e+00  
 2.264575e-03 -9.370598e-03 0.000000e+00  
 -4.139284e-03 -8.287512e-03 0.000000e+00  
 -5.299723e-03 -8.368251e-03 0.000000e+00  
 5.919697e-03 -1.085478e-02 0.000000e+00  
 2.964572e-03 -9.399270e-03 0.000000e+00  
 4.242611e-03 -9.928744e-03 0.000000e+00  
 -2.539373e-03 -7.978850e-03 0.000000e+00  
 -5.876938e-03 -8.285822e-03 0.000000e+00  
 -4.520262e-03 -8.089164e-03 0.000000e+00  
 5.215022e-03 -1.032506e-02 0.000000e+00  
 -3.363902e-03 -7.949257e-03 0.000000e+00  
 1.360060e-03 -8.649304e-03 0.000000e+00  
 3.688008e-03 -9.423222e-03 0.000000e+00  
 4.768659e-03 -9.890135e-03 0.000000e+00  
 -4.836824e-03 -7.942099e-03 0.000000e+00  
 -1.555309e-03 -7.822450e-03 0.000000e+00  
 2.433022e-03 -8.854913e-03 0.000000e+00  
 5.575459e-03 -1.025717e-02 0.000000e+00  
 -2.918737e-04 -7.869520e-03 0.000000e+00  
 -5.260225e-03 -7.817361e-03 0.000000e+00  
 4.288503e-03 -9.435805e-03 0.000000e+00  
 -3.934716e-03 -7.601139e-03 0.000000e+00  
 3.102963e-03 -8.796827e-03 0.000000e+00  
 5.135313e-03 -9.723059e-03 0.000000e+00  
 5.361416e-03 -9.814230e-03 0.000000e+00  
 -4.311685e-03 -7.421636e-03 0.000000e+00  
 4.762593e-03 -9.425623e-03 0.000000e+00  
 -2.697873e-03 -7.210908e-03 0.000000e+00  
 3.794673e-03 -8.825770e-03 0.000000e+00  
 -4.682524e-03 -7.255020e-03 0.000000e+00  
 5.362143e-03 -9.629860e-03 0.000000e+00  
 -3.242945e-03 -7.055667e-03 0.000000e+00  
 2.475968e-03 -8.093801e-03 0.000000e+00  
 5.225842e-03 -9.471442e-03 0.000000e+00  
 7.436009e-04 -7.435339e-03 0.000000e+00  
 4.386944e-03 -8.915678e-03 0.000000e+00  
 4.874561e-03 -9.178465e-03 0.000000e+00  
 -5.619433e-03 -7.220258e-03 0.000000e+00  
 5.591309e-03 -9.613851e-03 0.000000e+00  
 -3.689130e-03 -6.844345e-03 0.000000e+00  
 -1.781831e-03 -6.783426e-03 0.000000e+00  
 5.360790e-03 -9.322469e-03 0.000000e+00  
 1.717405e-03 -7.393255e-03 0.000000e+00  
 -1.065386e-03 -6.661368e-03 0.000000e+00  
 5.967600e-03 -9.619806e-03 0.000000e+00  
 -4.075095e-03 -6.668511e-03 0.000000e+00  
 5.102861e-03 -9.045869e-03 0.000000e+00  
 3.326896e-03 -8.007514e-03 0.000000e+00  
 4.712525e-03 -8.675674e-03 0.000000e+00  
 -2.529823e-03 -6.388961e-03 0.000000e+00  
 4.144302e-03 -8.289700e-03 0.000000e+00  
 -4.684633e-03 -6.563748e-03 0.000000e+00  
 2.545283e-03 -7.419846e-03 0.000000e+00  
 5.661729e-03 -9.197353e-03 0.000000e+00  
 2.287239e-05 -6.465980e-03 0.000000e+00  
 -3.294239e-03 -6.177572e-03 0.000000e+00  
 5.370909e-03 -8.862659e-03 0.000000e+00  
 5.966032e-03 -9.198529e-03 0.000000e+00  
 4.978912e-03 -8.542723e-03 0.000000e+00  
 4.527686e-03 -8.091836e-03 0.000000e+00  
 1.102892e-03 -6.455966e-03 0.000000e+00  
 -1.643259e-03 -5.800666e-03 0.000000e+00  
 3.939710e-03 -7.602817e-03 0.000000e+00  
 3.167904e-03 -7.143562e-03 0.000000e+00  
 -3.915197e-03 -5.827084e-03 0.000000e+00  
 -5.148643e-03 -5.895760e-03 0.000000e+00  
 2.027260e-03 -6.488969e-03 0.000000e+00  
 4.847157e-03 -7.942804e-03 0.000000e+00  
 5.327030e-03 -8.247248e-03 0.000000e+00  
 5.921719e-03 -8.600807e-03 0.000000e+00  
 -2.487527e-03 -5.415821e-03 0.000000e+00  
 4.320555e-03 -7.423014e-03 0.000000e+00  
 4.018859e-04 -5.549886e-03 0.000000e+00  
 5.144042e-03 -7.706552e-03 0.000000e+00  
 3.693737e-03 -6.844328e-03 0.000000e+00  
 -3.149530e-03 -5.099650e-03 0.000000e+00  
 -7.689377e-04 -5.103972e-03 0.000000e+00  
 4.693394e-03 -7.256964e-03 0.000000e+00  
 2.924589e-03 -6.263560e-03 0.000000e+00  
 5.775671e-03 -7.766615e-03 0.000000e+00  
 -3.867577e-03 -4.918181e-03 0.000000e+00  
 4.085060e-03 -6.670770e-03 0.000000e+00  
 -1.501288e-03 -4.752771e-03 0.000000e+00  
 1.738436e-03 -5.503008e-03 0.000000e+00  
 5.139443e-03 -7.186027e-03 0.000000e+00  
 4.581381e-03 -6.601559e-03 0.000000e+00  
 -2.259124e-03 -4.386870e-03 0.000000e+00  
 3.750185e-03 -6.027473e-03 0.000000e+00  
 7.551035e-04 -4.541485e-03 0.000000e+00  
 5.458119e-03 -6.680671e-03 0.000000e+00  
 -2.965261e-03 -4.133900e-03 0.000000e+00  
 -4.386839e-03 -4.300091e-03 0.000000e+00  
 -3.713996e-04 -4.034184e-03 0.000000e+00  
 2.916240e-03 -5.140542e-03 0.000000e+00  
 4.440120e-03 -5.866858e-03 0.000000e+00  
 -1.351576e-03 -3.647484e-03 0.000000e+00  
 1.959723e-03 -4.390839e-03 0.000000e+00  
 -2.033545e-03 -3.338420e-03 0.000000e+00  
 3.621303e-03 -4.932273e-03 0.000000e+00  
 9.842626e-04 -3.608415e-03 0.000000e+00  
 4.914631e-03 -5.320279e-03 0.000000e+00  
 -2.748646e-03 -3.098436e-03 0.000000e+00  
 2.730417e-03 -4.154647e-03 0.000000e+00  
 -5.403863e-04 -2.856853e-03 0.000000e+00  
 1.821157e-03 -3.336826e-03 0.000000e+00  
 -1.143215e-03 -2.539793e-03 0.000000e+00  
 3.456794e-03 -3.948785e-03 0.000000e+00  
 -1.742567e-03 -2.299538e-03 0.000000e+00  
 -3.190608e-03 -2.474827e-03 0.000000e+00  
 9.490256e-04 -2.514779e-03 0.000000e+00  
 2.475858e-03 -3.142349e-03 0.000000e+00  
 4.048548e-03 -3.649062e-03 0.000000e+00  
 -4.311105e-04 -1.751321e-03 0.000000e+00  
 1.568329e-03 -2.305760e-03 0.000000e+00  
 2.997772e-03 -2.930395e-03 0.000000e+00  
 -8.633907e-04 -1.494079e-03 0.000000e+00  
 -1.425287e-03 -1.316730e-03 0.000000e+00  
 2.117319e-03 -2.151537e-03 0.000000e+00  
 7.808982e-04 -1.490434e-03 0.000000e+00  
 1.201684e-03 -1.344814e-03 0.000000e+00  
 -1.183567e-04 -7.715283e-04 0.000000e+00  
 2.824747e-03 -2.021017e-03 0.000000e+00  
 -1.749812e-03 -1.012007e-03 0.000000e+00  
 -5.511549e-04 -5.895060e-04 0.000000e+00  
 1.757948e-03 -1.315732e-03 0.000000e+00  
 4.638393e-04 -6.057445e-04 0.000000e+00  
 -8.357198e-04 -4.943256e-04 0.000000e+00  
 6.527663e-04 -4.112137e-04 0.000000e+00  
 1.464718e-03 -9.096888e-04 0.000000e+00  
 0.000000e+00 0.000000e+00 0.000000e+00  
 0.000000e+00 0.000000e+00 0.000000e+00  
 0.000000e+00 0.000000e+00 0.000000e+00  
 0.000000e+00 0.000000e+00 0.000000e+00  
 0.000000e+00 0.000000e+00 0.000000e+00  
  
 