# vtk DataFile Version 1.0 
PolyMesh 
ASCII 
 
DATASET POLYDATA 
 
POINTS 5977 float 
-6.770100e-12 -2.000000e+00 0.000000e+00  
 -6.770200e-12 -1.927555e+00 0.000000e+00  
 8.562559e-02 -1.954946e+00 0.000000e+00  
 5.590841e-02 -1.922330e+00 0.000000e+00  
 8.360205e-02 -2.000000e+00 0.000000e+00  
 -5.995000e-12 -1.844121e+00 0.000000e+00  
 -5.995000e-12 -1.768820e+00 0.000000e+00  
 7.580675e-02 -1.873063e+00 0.000000e+00  
 6.006436e-02 -1.846337e+00 0.000000e+00  
 1.710518e-01 -2.000000e+00 0.000000e+00  
 1.309477e-01 -1.878786e+00 0.000000e+00  
 1.680813e-01 -1.937983e+00 0.000000e+00  
 1.434671e-01 -1.923868e+00 0.000000e+00  
 -5.885600e-12 -1.692278e+00 0.000000e+00  
 2.499470e-01 -2.000000e+00 0.000000e+00  
 8.095536e-02 -1.803335e+00 0.000000e+00  
 6.069575e-02 -1.768300e+00 0.000000e+00  
 7.989538e-02 -1.729762e+00 0.000000e+00  
 5.866835e-02 -1.691726e+00 0.000000e+00  
 1.530668e-01 -1.847711e+00 0.000000e+00  
 1.301390e-01 -1.803425e+00 0.000000e+00  
 2.114232e-01 -1.918119e+00 0.000000e+00  
 2.505556e-01 -1.946905e+00 0.000000e+00  
 1.954344e-01 -1.847569e+00 0.000000e+00  
 2.180359e-01 -1.875240e+00 0.000000e+00  
 -5.764400e-12 -1.614831e+00 0.000000e+00  
 -5.670900e-12 -1.536355e+00 0.000000e+00  
 -5.804300e-12 -1.457932e+00 0.000000e+00  
 3.315554e-01 -2.000000e+00 0.000000e+00  
 7.916423e-02 -1.654659e+00 0.000000e+00  
 5.610276e-02 -1.614429e+00 0.000000e+00  
 2.973055e-01 -1.919722e+00 0.000000e+00  
 3.295691e-01 -1.936058e+00 0.000000e+00  
 1.525049e-01 -1.765030e+00 0.000000e+00  
 1.325926e-01 -1.727990e+00 0.000000e+00  
 1.256460e-01 -1.652788e+00 0.000000e+00  
 1.485524e-01 -1.693954e+00 0.000000e+00  
 2.008091e-01 -1.767545e+00 0.000000e+00  
 2.191396e-01 -1.795576e+00 0.000000e+00  
 2.865046e-01 -1.860754e+00 0.000000e+00  
 2.661661e-01 -1.798813e+00 0.000000e+00  
 7.880687e-02 -1.576273e+00 0.000000e+00  
 5.457983e-02 -1.536287e+00 0.000000e+00  
 7.828600e-02 -1.496722e+00 0.000000e+00  
 5.697009e-02 -1.458590e+00 0.000000e+00  
 -5.936200e-12 -1.381200e+00 0.000000e+00  
 7.937089e-02 -1.420263e+00 0.000000e+00  
 5.938949e-02 -1.381813e+00 0.000000e+00  
 3.701586e-01 -1.915149e+00 0.000000e+00  
 4.102624e-01 -1.942591e+00 0.000000e+00  
 4.087109e-01 -2.000000e+00 0.000000e+00  
 1.192020e-01 -1.575368e+00 0.000000e+00  
 1.460556e-01 -1.616825e+00 0.000000e+00  
 3.436792e-01 -1.842789e+00 0.000000e+00  
 3.745445e-01 -1.873467e+00 0.000000e+00  
 1.830570e-01 -1.613546e+00 0.000000e+00  
 2.250274e-01 -1.715958e+00 0.000000e+00  
 2.058171e-01 -1.687419e+00 0.000000e+00  
 2.147453e-01 -1.654258e+00 0.000000e+00  
 2.677316e-01 -1.719398e+00 0.000000e+00  
 2.937614e-01 -1.764895e+00 0.000000e+00  
 3.216268e-01 -1.765850e+00 0.000000e+00  
 3.530850e-01 -1.804070e+00 0.000000e+00  
 1.232262e-01 -1.498356e+00 0.000000e+00  
 1.432423e-01 -1.535618e+00 0.000000e+00  
 -6.019300e-12 -1.305441e+00 0.000000e+00  
 -6.420500e-12 -1.229220e+00 0.000000e+00  
 -6.420500e-12 -1.159090e+00 0.000000e+00  
 1.281305e-01 -1.422020e+00 0.000000e+00  
 1.463385e-01 -1.460206e+00 0.000000e+00  
 8.049888e-02 -1.345179e+00 0.000000e+00  
 6.103595e-02 -1.305841e+00 0.000000e+00  
 1.492426e-01 -1.387054e+00 0.000000e+00  
 1.313922e-01 -1.346472e+00 0.000000e+00  
 4.908362e-01 -2.000000e+00 0.000000e+00  
 4.294936e-01 -1.852799e+00 0.000000e+00  
 4.538117e-01 -1.870848e+00 0.000000e+00  
 4.552241e-01 -1.918967e+00 0.000000e+00  
 4.899937e-01 -1.940965e+00 0.000000e+00  
 1.890820e-01 -1.538483e+00 0.000000e+00  
 2.066168e-01 -1.572833e+00 0.000000e+00  
 4.268382e-01 -1.801375e+00 0.000000e+00  
 4.062356e-01 -1.787065e+00 0.000000e+00  
 2.683512e-01 -1.632697e+00 0.000000e+00  
 2.526764e-01 -1.577571e+00 0.000000e+00  
 2.997897e-01 -1.675406e+00 0.000000e+00  
 2.875471e-01 -1.641813e+00 0.000000e+00  
 3.480448e-01 -1.691233e+00 0.000000e+00  
 3.574800e-01 -1.718646e+00 0.000000e+00  
 4.016766e-01 -1.735506e+00 0.000000e+00  
 1.964236e-01 -1.463775e+00 0.000000e+00  
 2.123972e-01 -1.500176e+00 0.000000e+00  
 8.140921e-02 -1.270296e+00 0.000000e+00  
 6.296267e-02 -1.231232e+00 0.000000e+00  
 -5.998400e-12 -1.077198e+00 0.000000e+00  
 -5.998400e-12 -1.000595e+00 0.000000e+00  
 8.473715e-02 -1.193726e+00 0.000000e+00  
 6.694463e-02 -1.153800e+00 0.000000e+00  
 7.629140e-02 -1.134011e+00 0.000000e+00  
 4.958087e-02 -1.079172e+00 0.000000e+00  
 2.181649e-01 -1.428414e+00 0.000000e+00  
 2.020805e-01 -1.389445e+00 0.000000e+00  
 1.341522e-01 -1.271677e+00 0.000000e+00  
 1.513080e-01 -1.314177e+00 0.000000e+00  
 2.049517e-01 -1.316268e+00 0.000000e+00  
 2.216888e-01 -1.356939e+00 0.000000e+00  
 5.705877e-01 -2.000000e+00 0.000000e+00  
 5.354624e-01 -1.917508e+00 0.000000e+00  
 5.693744e-01 -1.936950e+00 0.000000e+00  
 4.798599e-01 -1.780484e+00 0.000000e+00  
 5.034088e-01 -1.794533e+00 0.000000e+00  
 5.084908e-01 -1.849208e+00 0.000000e+00  
 5.321930e-01 -1.864675e+00 0.000000e+00  
 2.637833e-01 -1.505735e+00 0.000000e+00  
 2.775834e-01 -1.550021e+00 0.000000e+00  
 4.370891e-01 -1.709899e+00 0.000000e+00  
 4.738614e-01 -1.724959e+00 0.000000e+00  
 3.369018e-01 -1.601548e+00 0.000000e+00  
 3.229428e-01 -1.558618e+00 0.000000e+00  
 3.731204e-01 -1.615575e+00 0.000000e+00  
 3.833084e-01 -1.647532e+00 0.000000e+00  
 4.290454e-01 -1.664072e+00 0.000000e+00  
 2.862077e-01 -1.475795e+00 0.000000e+00  
 2.719676e-01 -1.432738e+00 0.000000e+00  
 1.380164e-01 -1.198519e+00 0.000000e+00  
 1.531135e-01 -1.241866e+00 0.000000e+00  
 7.812569e-02 -1.049060e+00 0.000000e+00  
 6.957215e-02 -9.981943e-01 0.000000e+00  
 1.600486e-01 -1.168009e+00 0.000000e+00  
 1.510828e-01 -1.128768e+00 0.000000e+00  
 1.302265e-01 -1.115587e+00 0.000000e+00  
 1.250843e-01 -1.065071e+00 0.000000e+00  
 2.768570e-01 -1.358836e+00 0.000000e+00  
 2.923916e-01 -1.403074e+00 0.000000e+00  
 2.251767e-01 -1.282856e+00 0.000000e+00  
 2.089878e-01 -1.244620e+00 0.000000e+00  
 2.949254e-01 -1.330899e+00 0.000000e+00  
 2.777950e-01 -1.285813e+00 0.000000e+00  
 6.483826e-01 -2.000000e+00 0.000000e+00  
 6.126922e-01 -1.915377e+00 0.000000e+00  
 6.484223e-01 -1.934670e+00 0.000000e+00  
 5.852609e-01 -1.843479e+00 0.000000e+00  
 6.104180e-01 -1.858707e+00 0.000000e+00  
 5.121207e-01 -1.701700e+00 0.000000e+00  
 5.483663e-01 -1.717594e+00 0.000000e+00  
 5.547817e-01 -1.771878e+00 0.000000e+00  
 5.798730e-01 -1.786082e+00 0.000000e+00  
 3.519875e-01 -1.525424e+00 0.000000e+00  
 3.387718e-01 -1.482361e+00 0.000000e+00  
 5.065003e-01 -1.646825e+00 0.000000e+00  
 4.659127e-01 -1.632304e+00 0.000000e+00  
 4.128260e-01 -1.574387e+00 0.000000e+00  
 4.006397e-01 -1.536029e+00 0.000000e+00  
 4.549141e-01 -1.588733e+00 0.000000e+00  
 3.474757e-01 -1.407049e+00 0.000000e+00  
 3.614558e-01 -1.452404e+00 0.000000e+00  
 7.273526e-01 -2.000000e+00 0.000000e+00  
 2.295196e-01 -1.207773e+00 0.000000e+00  
 2.169710e-01 -1.179303e+00 0.000000e+00  
 1.557418e-01 -1.040020e+00 0.000000e+00  
 1.508659e-01 -9.892245e-01 0.000000e+00  
 2.045113e-01 -1.096950e+00 0.000000e+00  
 2.434086e-01 -1.128093e+00 0.000000e+00  
 2.028325e-01 -1.061544e+00 0.000000e+00  
 3.667494e-01 -1.380090e+00 0.000000e+00  
 3.513754e-01 -1.331142e+00 0.000000e+00  
 2.837828e-01 -1.212720e+00 0.000000e+00  
 2.999760e-01 -1.253393e+00 0.000000e+00  
 3.507852e-01 -1.257898e+00 0.000000e+00  
 3.660402e-01 -1.309654e+00 0.000000e+00  
 6.879970e-01 -1.915141e+00 0.000000e+00  
 7.286342e-01 -1.938232e+00 0.000000e+00  
 6.906950e-01 -1.860396e+00 0.000000e+00  
 6.580654e-01 -1.840058e+00 0.000000e+00  
 5.380446e-01 -1.625974e+00 0.000000e+00  
 6.590147e-01 -1.781572e+00 0.000000e+00  
 6.301371e-01 -1.764254e+00 0.000000e+00  
 5.902022e-01 -1.691644e+00 0.000000e+00  
 5.859345e-01 -1.645006e+00 0.000000e+00  
 6.263914e-01 -1.710585e+00 0.000000e+00  
 4.294428e-01 -1.500055e+00 0.000000e+00  
 4.162254e-01 -1.459005e+00 0.000000e+00  
 4.941455e-01 -1.551813e+00 0.000000e+00  
 5.377087e-01 -1.566589e+00 0.000000e+00  
 4.810943e-01 -1.510744e+00 0.000000e+00  
 4.385668e-01 -1.427082e+00 0.000000e+00  
 4.225629e-01 -1.383116e+00 0.000000e+00  
 8.108703e-01 -2.000000e+00 0.000000e+00  
 7.678793e-01 -1.916805e+00 0.000000e+00  
 8.112818e-01 -1.943510e+00 0.000000e+00  
 2.600152e-01 -1.125269e+00 0.000000e+00  
 3.104462e-01 -1.171365e+00 0.000000e+00  
 2.354343e-01 -1.034697e+00 0.000000e+00  
 2.223169e-01 -9.756366e-01 0.000000e+00  
 2.901335e-01 -1.080160e+00 0.000000e+00  
 2.765490e-01 -1.045769e+00 0.000000e+00  
 3.201664e-01 -1.169220e+00 0.000000e+00  
 4.418765e-01 -1.353236e+00 0.000000e+00  
 4.265231e-01 -1.307685e+00 0.000000e+00  
 3.756025e-01 -1.228682e+00 0.000000e+00  
 3.719937e-01 -1.202494e+00 0.000000e+00  
 4.386097e-01 -1.287180e+00 0.000000e+00  
 4.283186e-01 -1.246690e+00 0.000000e+00  
 7.316903e-01 -1.843591e+00 0.000000e+00  
 7.711254e-01 -1.869355e+00 0.000000e+00  
 7.020998e-01 -1.765486e+00 0.000000e+00  
 7.383558e-01 -1.788705e+00 0.000000e+00  
 5.593793e-01 -1.553925e+00 0.000000e+00  
 6.204233e-01 -1.616725e+00 0.000000e+00  
 6.168801e-01 -1.578298e+00 0.000000e+00  
 7.075803e-01 -1.706209e+00 0.000000e+00  
 6.729944e-01 -1.685050e+00 0.000000e+00  
 6.695786e-01 -1.638664e+00 0.000000e+00  
 5.559391e-01 -1.475900e+00 0.000000e+00  
 5.110513e-01 -1.471401e+00 0.000000e+00  
 4.907084e-01 -1.431161e+00 0.000000e+00  
 5.720142e-01 -1.497434e+00 0.000000e+00  
 5.163458e-01 -1.385944e+00 0.000000e+00  
 4.996213e-01 -1.356779e+00 0.000000e+00  
 8.968169e-01 -2.000000e+00 0.000000e+00  
 8.539303e-01 -1.916742e+00 0.000000e+00  
 8.965754e-01 -1.944349e+00 0.000000e+00  
 8.542053e-01 -1.878164e+00 0.000000e+00  
 8.118714e-01 -1.849012e+00 0.000000e+00  
 3.412845e-01 -1.090543e+00 0.000000e+00  
 3.518681e-01 -1.115965e+00 0.000000e+00  
 3.099708e-01 -1.006501e+00 0.000000e+00  
 2.932129e-01 -9.568534e-01 0.000000e+00  
 3.680767e-01 -1.047714e+00 0.000000e+00  
 3.568969e-01 -1.018273e+00 0.000000e+00  
[...]
 POINT_DATA 5977 
 VECTORS Displacement float 
 0.000000e+00 2.551354e-05 0.000000e+00  
 0.000000e+00 2.533609e-05 0.000000e+00  
 7.273733e-07 2.528973e-05 0.000000e+00  
 5.204084e-07 2.526512e-05 0.000000e+00  
 6.031587e-07 2.541211e-05 0.000000e+00  
 0.000000e+00 2.509527e-05 0.000000e+00  
 0.000000e+00 2.486652e-05 0.000000e+00  
 7.942990e-07 2.508559e-05 0.000000e+00  
 6.637002e-07 2.504239e-05 0.000000e+00  
 1.251365e-06 2.506881e-05 0.000000e+00  
 1.362165e-06 2.492374e-05 0.000000e+00  
 1.521352e-06 2.492325e-05 0.000000e+00  
 1.342186e-06 2.500007e-05 0.000000e+00  
 0.000000e+00 2.463017e-05 0.000000e+00  
 1.877632e-06 2.457666e-05 0.000000e+00  
 9.655456e-07 2.486411e-05 0.000000e+00  
 7.637104e-07 2.480262e-05 0.000000e+00  
 1.061800e-06 2.463746e-05 0.000000e+00  
 8.185976e-07 2.456865e-05 0.000000e+00  
 1.697583e-06 2.473239e-05 0.000000e+00  
 1.556404e-06 2.469618e-05 0.000000e+00  
 2.029414e-06 2.461263e-05 0.000000e+00  
 2.247681e-06 2.442247e-05 0.000000e+00  
 2.178327e-06 2.449813e-05 0.000000e+00  
 2.309331e-06 2.444108e-05 0.000000e+00  
 0.000000e+00 2.439488e-05 0.000000e+00  
 0.000000e+00 2.416343e-05 0.000000e+00  
 0.000000e+00 2.393715e-05 0.000000e+00  
 2.584032e-06 2.389242e-05 0.000000e+00  
 1.155295e-06 2.440569e-05 0.000000e+00  
 8.568780e-07 2.433676e-05 0.000000e+00  
 2.901094e-06 2.396214e-05 0.000000e+00  
 3.116869e-06 2.372123e-05 0.000000e+00  
 1.936813e-06 2.447292e-05 0.000000e+00  
 1.769816e-06 2.444745e-05 0.000000e+00  
 1.839714e-06 2.423729e-05 0.000000e+00  
 2.072724e-06 2.426295e-05 0.000000e+00  
 2.549850e-06 2.420631e-05 0.000000e+00  
 2.674277e-06 2.417680e-05 0.000000e+00  
 3.159916e-06 2.387449e-05 0.000000e+00  
 3.250003e-06 2.383213e-05 0.000000e+00  
 1.255290e-06 2.416779e-05 0.000000e+00  
 9.085260e-07 2.410661e-05 0.000000e+00  
 1.361055e-06 2.393226e-05 0.000000e+00  
 1.035267e-06 2.387463e-05 0.000000e+00  
 0.000000e+00 2.371337e-05 0.000000e+00  
 1.508055e-06 2.370293e-05 0.000000e+00  
 1.185412e-06 2.364124e-05 0.000000e+00  
 3.722263e-06 2.325023e-05 0.000000e+00  
 3.918982e-06 2.290577e-05 0.000000e+00  
 3.313662e-06 2.310838e-05 0.000000e+00  
 1.901750e-06 2.402264e-05 0.000000e+00  
 2.227987e-06 2.402989e-05 0.000000e+00  
 3.949850e-06 2.327712e-05 0.000000e+00  
 4.102401e-06 2.306434e-05 0.000000e+00  
 2.805570e-06 2.380964e-05 0.000000e+00  
 3.066112e-06 2.387078e-05 0.000000e+00  
 2.901068e-06 2.391045e-05 0.000000e+00  
 3.147515e-06 2.373547e-05 0.000000e+00  
 3.642932e-06 2.354764e-05 0.000000e+00  
 3.777187e-06 2.348114e-05 0.000000e+00  
 4.141688e-06 2.322079e-05 0.000000e+00  
 4.324463e-06 2.304313e-05 0.000000e+00  
 2.139238e-06 2.377043e-05 0.000000e+00  
 2.386891e-06 2.378870e-05 0.000000e+00  
 0.000000e+00 2.347533e-05 0.000000e+00  
 0.000000e+00 2.319490e-05 0.000000e+00  
 0.000000e+00 2.285896e-05 0.000000e+00  
 2.428348e-06 2.351442e-05 0.000000e+00  
 2.651274e-06 2.353889e-05 0.000000e+00  
 1.684645e-06 2.346848e-05 0.000000e+00  
 1.353494e-06 2.339391e-05 0.000000e+00  
 2.950253e-06 2.329233e-05 0.000000e+00  
 2.740742e-06 2.325757e-05 0.000000e+00  
 4.168675e-06 2.214508e-05 0.000000e+00  
 4.941321e-06 2.237228e-05 0.000000e+00  
 5.091911e-06 2.214727e-05 0.000000e+00  
 4.661227e-06 2.230188e-05 0.000000e+00  
 4.845005e-06 2.195052e-05 0.000000e+00  
 3.143469e-06 2.352814e-05 0.000000e+00  
 3.311573e-06 2.352020e-05 0.000000e+00  
 5.311575e-06 2.221197e-05 0.000000e+00  
 5.140297e-06 2.239811e-05 0.000000e+00  
 4.040402e-06 2.323908e-05 0.000000e+00  
 4.035055e-06 2.317701e-05 0.000000e+00  
 4.312293e-06 2.310566e-05 0.000000e+00  
 4.288108e-06 2.310144e-05 0.000000e+00  
 4.932819e-06 2.268026e-05 0.000000e+00  
 4.909998e-06 2.268276e-05 0.000000e+00  
 5.431411e-06 2.225213e-05 0.000000e+00  
 3.543573e-06 2.323531e-05 0.000000e+00  
 3.680555e-06 2.323842e-05 0.000000e+00  
 1.903064e-06 2.320902e-05 0.000000e+00  
 1.573464e-06 2.310900e-05 0.000000e+00  
 0.000000e+00 2.231854e-05 0.000000e+00  
 0.000000e+00 2.150440e-05 0.000000e+00  
 2.261915e-06 2.288050e-05 0.000000e+00  
 1.941165e-06 2.272929e-05 0.000000e+00  
 2.305216e-06 2.258765e-05 0.000000e+00  
 1.716966e-06 2.225581e-05 0.000000e+00  
 4.095547e-06 2.295326e-05 0.000000e+00  
 3.976045e-06 2.294621e-05 0.000000e+00  
 3.118916e-06 2.298026e-05 0.000000e+00  
 3.296668e-06 2.303685e-05 0.000000e+00  
 4.435104e-06 2.266569e-05 0.000000e+00  
 4.538098e-06 2.267613e-05 0.000000e+00  
 5.083811e-06 2.110881e-05 0.000000e+00  
 5.655720e-06 2.127385e-05 0.000000e+00  
 5.864535e-06 2.088920e-05 0.000000e+00  
 6.197864e-06 2.147064e-05 0.000000e+00  
 6.409643e-06 2.121925e-05 0.000000e+00  
 5.993920e-06 2.137004e-05 0.000000e+00  
 6.159278e-06 2.111518e-05 0.000000e+00  
 4.545869e-06 2.282994e-05 0.000000e+00  
 4.565196e-06 2.286111e-05 0.000000e+00  
 6.115310e-06 2.172738e-05 0.000000e+00  
 6.544444e-06 2.132065e-05 0.000000e+00  
 5.262034e-06 2.245893e-05 0.000000e+00  
 5.270885e-06 2.244263e-05 0.000000e+00  
 5.752802e-06 2.211474e-05 0.000000e+00  
 5.718409e-06 2.212340e-05 0.000000e+00  
 6.310156e-06 2.163989e-05 0.000000e+00  
 5.092303e-06 2.251028e-05 0.000000e+00  
 5.074762e-06 2.249181e-05 0.000000e+00  
 3.627633e-06 2.265446e-05 0.000000e+00  
 3.727852e-06 2.275455e-05 0.000000e+00  
 2.898793e-06 2.194489e-05 0.000000e+00  
 2.999921e-06 2.140813e-05 0.000000e+00  
 4.447749e-06 2.237673e-05 0.000000e+00  
 4.555584e-06 2.221385e-05 0.000000e+00  
 4.063168e-06 2.225033e-05 0.000000e+00  
 4.403709e-06 2.190370e-05 0.000000e+00  
 5.634385e-06 2.216769e-05 0.000000e+00  
 5.638709e-06 2.217668e-05 0.000000e+00  
 5.099212e-06 2.237058e-05 0.000000e+00  
 5.028015e-06 2.235446e-05 0.000000e+00  
 6.207379e-06 2.186878e-05 0.000000e+00  
 6.224381e-06 2.186820e-05 0.000000e+00  
 6.058227e-06 2.002789e-05 0.000000e+00  
 6.682254e-06 2.019917e-05 0.000000e+00  
 6.930296e-06 1.976475e-05 0.000000e+00  
 7.089226e-06 2.029593e-05 0.000000e+00  
 7.281316e-06 2.000010e-05 0.000000e+00  
 7.291205e-06 2.071204e-05 0.000000e+00  
 7.706750e-06 2.027674e-05 0.000000e+00  
 7.333661e-06 2.042373e-05 0.000000e+00  
 7.567706e-06 2.012914e-05 0.000000e+00  
 5.948268e-06 2.199834e-05 0.000000e+00  
 5.984993e-06 2.197833e-05 0.000000e+00  
 7.631788e-06 2.054815e-05 0.000000e+00  
 7.102159e-06 2.103483e-05 0.000000e+00  
 6.651649e-06 2.147168e-05 0.000000e+00  
 6.704791e-06 2.146252e-05 0.000000e+00  
 7.239163e-06 2.099070e-05 0.000000e+00  
 6.655795e-06 2.157572e-05 0.000000e+00  
 6.588582e-06 2.159471e-05 0.000000e+00  
 7.127882e-06 1.888448e-05 0.000000e+00  
 5.847116e-06 2.201868e-05 0.000000e+00  
 5.827230e-06 2.199642e-05 0.000000e+00  
 5.791477e-06 2.156025e-05 0.000000e+00  
 6.504700e-06 2.107437e-05 0.000000e+00  
 6.520288e-06 2.165314e-05 0.000000e+00  
 7.162537e-06 2.149870e-05 0.000000e+00  
 7.010422e-06 2.142405e-05 0.000000e+00  
 7.233367e-06 2.122741e-05 0.000000e+00  
 7.353048e-06 2.120922e-05 0.000000e+00  
 7.086323e-06 2.148884e-05 0.000000e+00  
 7.019646e-06 2.149112e-05 0.000000e+00  
 8.078791e-06 2.089032e-05 0.000000e+00  
 7.855060e-06 2.092926e-05 0.000000e+00  
 7.717906e-06 1.910460e-05 0.000000e+00  
 8.002289e-06 1.860079e-05 0.000000e+00  
 8.401424e-06 1.882820e-05 0.000000e+00  
 8.153699e-06 1.922445e-05 0.000000e+00  
 8.296060e-06 2.000886e-05 0.000000e+00  
 8.772358e-06 1.894940e-05 0.000000e+00  
 8.510166e-06 1.930132e-05 0.000000e+00  
 8.565872e-06 1.955704e-05 0.000000e+00  
 8.901337e-06 1.939992e-05 0.000000e+00  
 8.954939e-06 1.910866e-05 0.000000e+00  
 7.452353e-06 2.093952e-05 0.000000e+00  
 7.528374e-06 2.093309e-05 0.000000e+00  
 8.163309e-06 2.029096e-05 0.000000e+00  
 8.772565e-06 1.973496e-05 0.000000e+00  
 8.264415e-06 2.028251e-05 0.000000e+00  
 8.192333e-06 2.048792e-05 0.000000e+00  
 8.277005e-06 2.050525e-05 0.000000e+00  
 8.343557e-06 1.765029e-05 0.000000e+00  
 8.849882e-06 1.791934e-05 0.000000e+00  
 9.148922e-06 1.738788e-05 0.000000e+00  
 7.653824e-06 2.131507e-05 0.000000e+00  
 8.257464e-06 2.099868e-05 0.000000e+00  
 8.563237e-06 2.098078e-05 0.000000e+00  
 9.569841e-06 2.058510e-05 0.000000e+00  
 9.252009e-06 2.074745e-05 0.000000e+00  
 9.590681e-06 2.067934e-05 0.000000e+00  
 8.517403e-06 2.086329e-05 0.000000e+00  
 8.932559e-06 2.009305e-05 0.000000e+00  
 9.103835e-06 2.009348e-05 0.000000e+00  
 8.976721e-06 2.043135e-05 0.000000e+00  
 9.250816e-06 2.035453e-05 0.000000e+00  
 9.582208e-06 1.981759e-05 0.000000e+00  
 9.872524e-06 1.976570e-05 0.000000e+00  
 9.193177e-06 1.813535e-05 0.000000e+00  
 9.483091e-06 1.765529e-05 0.000000e+00  
 9.584025e-06 1.822276e-05 0.000000e+00  
 9.895613e-06 1.777898e-05 0.000000e+00  
 9.241453e-06 1.935245e-05 0.000000e+00  
 9.703820e-06 1.874425e-05 0.000000e+00  
 9.989331e-06 1.860385e-05 0.000000e+00  
 1.026027e-05 1.785238e-05 0.000000e+00  
 9.919717e-06 1.828043e-05 0.000000e+00  
 1.029947e-05 1.810038e-05 0.000000e+00  
 9.869757e-06 1.901150e-05 0.000000e+00  
 9.118376e-06 1.966333e-05 0.000000e+00  
 9.111035e-06 1.976297e-05 0.000000e+00  
 9.956242e-06 1.887695e-05 0.000000e+00  
 1.001968e-05 1.915116e-05 0.000000e+00  
 1.000768e-05 1.925512e-05 0.000000e+00  
 9.678658e-06 1.637889e-05 0.000000e+00  
 1.015568e-05 1.662353e-05 0.000000e+00  
 1.046011e-05 1.611693e-05 0.000000e+00  
 1.064748e-05 1.643644e-05 0.000000e+00  
 1.034443e-05 1.694049e-05 0.000000e+00  
 1.040604e-05 2.019267e-05 0.000000e+00  
 1.017791e-05 2.019215e-05 0.000000e+00  
 1.155727e-05 2.009255e-05 0.000000e+00  
 1.258907e-05 1.992934e-05 0.000000e+00  
 1.205697e-05 1.961968e-05 0.000000e+00  
 1.253706e-05 1.960830e-05 0.000000e+00  
 1.114320e-05 1.954363e-05 0.000000e+00  
 1.076420e-05 1.959332e-05 0.000000e+00  
 1.099763e-05 1.866086e-05 0.000000e+00  
 1.095766e-05 1.878187e-05 0.000000e+00  
 1.145174e-05 1.898122e-05 0.000000e+00  
 1.176095e-05 1.840633e-05 0.000000e+00  
 1.113509e-05 1.905261e-05 0.000000e+00  
 1.063273e-05 1.712839e-05 0.000000e+00  
 1.093167e-05 1.665088e-05 0.000000e+00  
 1.106936e-05 1.712841e-05 0.000000e+00  
 1.128580e-05 1.673859e-05 0.000000e+00  
 1.083057e-05 1.793383e-05 0.000000e+00  
 1.096355e-05 1.797350e-05 0.000000e+00  
 1.125327e-05 1.731424e-05 0.000000e+00  
 1.141490e-05 1.736830e-05 0.000000e+00  
 1.159341e-05 1.696832e-05 0.000000e+00  
 1.162154e-05 1.676082e-05 0.000000e+00  
 1.166981e-05 1.744889e-05 0.000000e+00  
 1.174829e-05 1.752563e-05 0.000000e+00  
 1.091531e-05 1.838139e-05 0.000000e+00  
 1.093537e-05 1.827379e-05 0.000000e+00  
 1.198130e-05 1.783552e-05 0.000000e+00  
 1.193137e-05 1.771154e-05 0.000000e+00  
 1.108310e-05 1.513463e-05 0.000000e+00  
 1.251884e-05 1.395688e-05 0.000000e+00  
 1.154615e-05 1.531952e-05 0.000000e+00  
 1.188737e-05 1.484953e-05 0.000000e+00  
 1.172217e-05 1.560730e-05 0.000000e+00  
 1.205527e-05 1.513712e-05 0.000000e+00  
 1.181073e-05 1.591394e-05 0.000000e+00  
 1.212905e-05 1.545297e-05 0.000000e+00  
 1.250377e-05 1.893719e-05 0.000000e+00  
 1.305644e-05 1.892729e-05 0.000000e+00  
 1.450395e-05 1.903909e-05 0.000000e+00  
 1.572140e-05 1.905983e-05 0.000000e+00  
 1.465740e-05 1.832692e-05 0.000000e+00  
 1.540078e-05 1.836943e-05 0.000000e+00  
 1.279328e-05 1.824993e-05 0.000000e+00  
 1.333684e-05 1.822933e-05 0.000000e+00  
 1.284981e-05 1.766590e-05 0.000000e+00  
 1.317929e-05 1.734058e-05 0.000000e+00  
 1.296415e-05 1.721994e-05 0.000000e+00  
 1.348584e-05 1.759685e-05 0.000000e+00  
 1.222071e-05 1.590564e-05 0.000000e+00  
 1.285611e-05 1.552751e-05 0.000000e+00  
 1.238012e-05 1.561780e-05 0.000000e+00  
 1.271778e-05 1.576491e-05 0.000000e+00  
 1.256608e-05 1.661469e-05 0.000000e+00  
 1.229131e-05 1.667326e-05 0.000000e+00  
 1.309515e-05 1.587391e-05 0.000000e+00  
 1.284477e-05 1.596584e-05 0.000000e+00  
 1.332436e-05 1.540686e-05 0.000000e+00  
 1.316012e-05 1.616011e-05 0.000000e+00  
 1.349849e-05 1.611765e-05 0.000000e+00  
 1.291625e-05 1.668043e-05 0.000000e+00  
 1.295063e-05 1.679530e-05 0.000000e+00  
 1.401202e-05 1.612620e-05 0.000000e+00  
 1.396204e-05 1.634298e-05 0.000000e+00  
 1.292466e-05 1.410902e-05 0.000000e+00  
 1.333759e-05 1.364064e-05 0.000000e+00  
 1.429496e-05 1.298626e-05 0.000000e+00  
 1.476638e-05 1.250828e-05 0.000000e+00  
 1.400697e-05 1.283110e-05 0.000000e+00  
 1.354597e-05 1.386938e-05 0.000000e+00  
 1.314448e-05 1.432099e-05 0.000000e+00  
 1.365182e-05 1.416192e-05 0.000000e+00  
 1.362978e-05 1.453927e-05 0.000000e+00  
 1.328803e-05 1.455735e-05 0.000000e+00  
 1.547110e-05 1.755807e-05 0.000000e+00  
 1.476666e-05 1.753999e-05 0.000000e+00  
 1.723536e-05 1.782213e-05 0.000000e+00  
 1.869604e-05 1.805199e-05 0.000000e+00  
 1.706461e-05 1.690149e-05 0.000000e+00  
 1.801501e-05 1.706466e-05 0.000000e+00  
 1.548019e-05 1.677589e-05 0.000000e+00  
 1.479222e-05 1.682565e-05 0.000000e+00  
 1.540549e-05 1.610697e-05 0.000000e+00  
 1.526737e-05 1.563135e-05 0.000000e+00  
 1.487920e-05 1.619385e-05 0.000000e+00  
 1.427751e-05 1.460639e-05 0.000000e+00  
 1.380862e-05 1.441969e-05 0.000000e+00  
 1.442914e-05 1.424140e-05 0.000000e+00  
 1.388055e-05 1.462068e-05 0.000000e+00  
 1.375686e-05 1.536193e-05 0.000000e+00  
 1.412413e-05 1.527313e-05 0.000000e+00  
 1.462349e-05 1.455377e-05 0.000000e+00  
 1.458707e-05 1.439796e-05 0.000000e+00  
 1.450453e-05 1.498434e-05 0.000000e+00  
 1.452604e-05 1.531407e-05 0.000000e+00  
 1.502634e-05 1.477462e-05 0.000000e+00  
 1.515948e-05 1.504618e-05 0.000000e+00  
 1.506732e-05 1.518706e-05 0.000000e+00  
 1.589263e-05 1.511884e-05 0.000000e+00  
 1.617764e-05 1.464544e-05 0.000000e+00  
 1.492014e-05 1.270356e-05 0.000000e+00  
 1.444630e-05 1.321257e-05 0.000000e+00  
 1.576519e-05 1.211884e-05 0.000000e+00  
 1.630876e-05 1.161267e-05 0.000000e+00  
 1.572870e-05 1.188725e-05 0.000000e+00  
 1.624556e-05 1.143764e-05 0.000000e+00  
 1.562470e-05 1.171183e-05 0.000000e+00  
 1.466996e-05 1.338789e-05 0.000000e+00  
 1.505651e-05 1.292073e-05 0.000000e+00  
 1.482797e-05 1.357181e-05 0.000000e+00  
 1.510774e-05 1.316815e-05 0.000000e+00  
 1.774551e-05 1.615379e-05 0.000000e+00  
 1.690868e-05 1.601764e-05 0.000000e+00  
 1.979279e-05 1.649966e-05 0.000000e+00  
 2.144631e-05 1.695991e-05 0.000000e+00  
 1.936997e-05 1.543108e-05 0.000000e+00  
 2.046207e-05 1.568815e-05 0.000000e+00  
 1.687709e-05 1.520463e-05 0.000000e+00  
 1.747602e-05 1.539160e-05 0.000000e+00  
 1.733617e-05 1.472680e-05 0.000000e+00  
 1.722329e-05 1.444909e-05 0.000000e+00  
 1.589507e-05 1.329290e-05 0.000000e+00  
 1.593010e-05 1.309482e-05 0.000000e+00  
 1.523175e-05 1.355547e-05 0.000000e+00  
 1.548300e-05 1.317210e-05 0.000000e+00  
 1.558486e-05 1.386040e-05 0.000000e+00  
 1.558601e-05 1.399928e-05 0.000000e+00  
 1.624780e-05 1.306437e-05 0.000000e+00  
 1.621916e-05 1.327856e-05 0.000000e+00  
 1.827222e-05 1.350383e-05 0.000000e+00  
 1.635327e-05 1.349264e-05 0.000000e+00  
 1.620866e-05 1.383136e-05 0.000000e+00  
 1.661472e-05 1.359435e-05 0.000000e+00  
 1.654942e-05 1.386122e-05 0.000000e+00  
 1.739185e-05 1.339273e-05 0.000000e+00  
 1.724927e-05 1.375795e-05 0.000000e+00  
 1.830333e-05 1.323634e-05 0.000000e+00  
 1.607194e-05 1.216900e-05 0.000000e+00  
 1.640663e-05 1.180543e-05 0.000000e+00  
 1.736137e-05 1.112735e-05 0.000000e+00  
 1.769436e-05 1.080330e-05 0.000000e+00  
 1.705711e-05 1.112590e-05 0.000000e+00  
 1.738937e-05 1.074491e-05 0.000000e+00  
 1.771322e-05 1.060478e-05 0.000000e+00  
 1.790279e-05 1.037436e-05 0.000000e+00  
 1.721893e-05 1.070883e-05 0.000000e+00  
 1.878412e-05 9.810819e-06 0.000000e+00  
 1.635598e-05 1.222188e-05 0.000000e+00  
 1.662809e-05 1.189313e-05 0.000000e+00  
 1.671115e-05 1.204995e-05 0.000000e+00  
 1.633982e-05 1.247930e-05 0.000000e+00  
 2.030183e-05 9.020113e-06 0.000000e+00  
 2.176266e-05 8.329147e-06 0.000000e+00  
 1.914481e-05 1.449610e-05 0.000000e+00  
 1.997034e-05 1.463153e-05 0.000000e+00  
 2.218899e-05 1.507411e-05 0.000000e+00  
 2.392129e-05 1.584324e-05 0.000000e+00  
 2.163355e-05 1.384564e-05 0.000000e+00  
 2.269715e-05 1.441934e-05 0.000000e+00  
 1.972521e-05 1.365944e-05 0.000000e+00  
 1.976977e-05 1.285788e-05 0.000000e+00  
 1.936087e-05 1.360803e-05 0.000000e+00  
 2.036089e-05 1.238978e-05 0.000000e+00  
 1.738021e-05 1.214632e-05 0.000000e+00  
 1.774127e-05 1.175270e-05 0.000000e+00  
 1.703301e-05 1.215993e-05 0.000000e+00  
 1.713035e-05 1.201024e-05 0.000000e+00  
 1.747227e-05 1.254439e-05 0.000000e+00  
 1.731340e-05 1.248719e-05 0.000000e+00  
 1.804173e-05 1.180462e-05 0.000000e+00  
 1.936089e-05 1.233005e-05 0.000000e+00  
 2.058740e-05 1.171875e-05 0.000000e+00  
 1.790903e-05 1.225873e-05 0.000000e+00  
 1.789435e-05 1.255405e-05 0.000000e+00  
 1.854288e-05 1.216101e-05 0.000000e+00  
 1.939527e-05 1.200136e-05 0.000000e+00  
 1.841165e-05 1.254744e-05 0.000000e+00  
 1.803575e-05 1.077195e-05 0.000000e+00  
 1.778669e-05 1.103802e-05 0.000000e+00  
 1.906885e-05 1.004311e-05 0.000000e+00  
 1.909174e-05 9.914068e-06 0.000000e+00  
 1.867617e-05 1.014710e-05 0.000000e+00  
 1.898846e-05 9.835228e-06 0.000000e+00  
 1.894952e-05 9.760826e-06 0.000000e+00  
 1.939189e-05 9.530665e-06 0.000000e+00  
 1.941074e-05 9.474912e-06 0.000000e+00  
 2.058215e-05 8.827272e-06 0.000000e+00  
 2.098291e-05 8.620174e-06 0.000000e+00  
 1.840239e-05 1.072220e-05 0.000000e+00  
 1.821579e-05 1.111198e-05 0.000000e+00  
 1.780428e-05 1.125633e-05 0.000000e+00  
 1.853496e-05 1.089265e-05 0.000000e+00  
 1.889700e-05 1.037766e-05 0.000000e+00  
 2.181530e-05 8.189410e-06 0.000000e+00  
 2.236893e-05 7.957565e-06 0.000000e+00  
 2.311890e-05 7.591542e-06 0.000000e+00  
 2.379666e-05 7.366507e-06 0.000000e+00  
 2.348478e-05 7.599058e-06 0.000000e+00  
 2.148058e-05 1.279105e-05 0.000000e+00  
 2.209807e-05 1.330442e-05 0.000000e+00  
 2.467714e-05 1.365598e-05 0.000000e+00  
 2.624760e-05 1.467247e-05 0.000000e+00  
 2.401978e-05 1.243826e-05 0.000000e+00  
 2.496272e-05 1.318512e-05 0.000000e+00  
 2.182017e-05 1.173972e-05 0.000000e+00  
 2.208181e-05 1.216521e-05 0.000000e+00  
 2.268124e-05 1.094877e-05 0.000000e+00  
 2.133331e-05 1.112156e-05 0.000000e+00  
 2.252503e-05 1.056881e-05 0.000000e+00  
 1.866373e-05 1.133628e-05 0.000000e+00  
 1.863870e-05 1.105839e-05 0.000000e+00  
 1.925654e-05 1.076730e-05 0.000000e+00  
 1.900060e-05 1.071970e-05 0.000000e+00  
 1.927351e-05 1.102150e-05 0.000000e+00  
 1.888735e-05 1.148107e-05 0.000000e+00  
 2.151102e-05 1.059873e-05 0.000000e+00  
 2.039032e-05 1.116821e-05 0.000000e+00  
 1.976207e-05 1.098949e-05 0.000000e+00  
 1.942387e-05 1.145175e-05 0.000000e+00  
 2.046910e-05 1.088355e-05 0.000000e+00  
 1.998829e-05 9.997560e-06 0.000000e+00  
 1.958287e-05 9.737215e-06 0.000000e+00  
 1.969380e-05 9.746616e-06 0.000000e+00  
 2.059862e-05 9.036265e-06 0.000000e+00  
 2.056352e-05 8.968358e-06 0.000000e+00  
 2.047008e-05 9.019032e-06 0.000000e+00  
 2.040795e-05 9.007303e-06 0.000000e+00  
 2.096703e-05 8.615426e-06 0.000000e+00  
 2.086826e-05 8.709391e-06 0.000000e+00  
 2.056370e-05 8.852191e-06 0.000000e+00  
 2.258095e-05 7.756887e-06 0.000000e+00  
 2.252318e-05 7.777338e-06 0.000000e+00  
 2.190390e-05 8.100380e-06 0.000000e+00  
 1.971079e-05 9.964756e-06 0.000000e+00  
 1.974451e-05 9.925333e-06 0.000000e+00  
 2.050191e-05 9.537632e-06 0.000000e+00  
 2.076896e-05 9.153123e-06 0.000000e+00  
 2.069170e-05 9.125292e-06 0.000000e+00  
 2.363944e-05 7.254031e-06 0.000000e+00  
 2.373150e-05 7.237123e-06 0.000000e+00  
 2.465966e-05 6.834663e-06 0.000000e+00  
 2.478695e-05 6.881225e-06 0.000000e+00  
 2.513749e-05 6.750957e-06 0.000000e+00  
 2.546953e-05 6.731525e-06 0.000000e+00  
 2.515065e-05 6.978199e-06 0.000000e+00  
 2.678885e-05 6.443812e-06 0.000000e+00  
 2.444494e-05 1.189327e-05 0.000000e+00  
 2.389768e-05 1.136809e-05 0.000000e+00  
 2.709689e-05 1.225192e-05 0.000000e+00  
 2.860871e-05 1.334573e-05 0.000000e+00  
 2.617883e-05 1.116903e-05 0.000000e+00  