# vtk DataFile Version 1.0 
PolyMesh 
ASCII 
 
DATASET POLYDATA 
 
POINTS 1999 float 
3.370180e-11 -2.000000e+00 0.000000e+00  
 1.345702e-01 -2.000000e+00 0.000000e+00  
 1.314397e-01 -1.886964e+00 0.000000e+00  
 3.370180e-11 -1.859096e+00 0.000000e+00  
 -1.029450e-11 -1.774353e+00 0.000000e+00  
 2.729336e-01 -2.000000e+00 0.000000e+00  
 1.737645e-01 -1.847095e+00 0.000000e+00  
 2.735646e-01 -1.887288e+00 0.000000e+00  
 -1.029450e-11 -1.630715e+00 0.000000e+00  
 1.687432e-01 -1.762847e+00 0.000000e+00  
 1.386715e-01 -1.740531e+00 0.000000e+00  
 1.191332e-01 -1.635850e+00 0.000000e+00  
 3.327370e-11 -1.502779e+00 0.000000e+00  
 4.194175e-01 -2.000000e+00 0.000000e+00  
 3.331979e-01 -1.844729e+00 0.000000e+00  
 4.213537e-01 -1.896722e+00 0.000000e+00  
 2.671048e-01 -1.719699e+00 0.000000e+00  
 3.362746e-01 -1.778673e+00 0.000000e+00  
 1.511061e-01 -1.596065e+00 0.000000e+00  
 1.086060e-01 -1.499807e+00 0.000000e+00  
 2.212493e-01 -1.592924e+00 0.000000e+00  
 2.764163e-01 -1.647957e+00 0.000000e+00  
 1.445195e-01 -1.446053e+00 0.000000e+00  
 1.172184e-01 -1.372117e+00 0.000000e+00  
 3.327370e-11 -1.355597e+00 0.000000e+00  
 -9.972600e-12 -1.252310e+00 0.000000e+00  
 5.726868e-01 -2.000000e+00 0.000000e+00  
 4.935023e-01 -1.850544e+00 0.000000e+00  
 5.722816e-01 -1.897266e+00 0.000000e+00  
 4.256301e-01 -1.727952e+00 0.000000e+00  
 4.932486e-01 -1.771058e+00 0.000000e+00  
 4.210687e-01 -1.644420e+00 0.000000e+00  
 3.691821e-01 -1.612615e+00 0.000000e+00  
 4.299620e-11 -1.104700e+00 0.000000e+00  
 4.299620e-11 -1.002988e+00 0.000000e+00  
 2.504116e-01 -1.453497e+00 0.000000e+00  
 2.698647e-01 -1.484856e+00 0.000000e+00  
 3.622640e-01 -1.506632e+00 0.000000e+00  
 2.805190e-01 -1.356909e+00 0.000000e+00  
 1.732945e-01 -1.294796e+00 0.000000e+00  
 1.675588e-01 -1.256876e+00 0.000000e+00  
 1.321851e-01 -1.227578e+00 0.000000e+00  
 1.215792e-01 -1.126576e+00 0.000000e+00  
 7.253487e-01 -2.000000e+00 0.000000e+00  
 6.476862e-01 -1.849461e+00 0.000000e+00  
 7.246013e-01 -1.895466e+00 0.000000e+00  
 6.466081e-01 -1.772544e+00 0.000000e+00  
 5.710288e-01 -1.727206e+00 0.000000e+00  
 5.053811e-01 -1.599501e+00 0.000000e+00  
 5.724310e-01 -1.637778e+00 0.000000e+00  
 4.067391e-01 -1.474120e+00 0.000000e+00  
 5.005766e-01 -1.512124e+00 0.000000e+00  
 1.657258e-01 -1.081478e+00 0.000000e+00  
 1.551087e-01 -9.909880e-01 0.000000e+00  
 3.215284e-01 -1.337606e+00 0.000000e+00  
 4.100213e-01 -1.380327e+00 0.000000e+00  
 4.616127e-01 -1.348709e+00 0.000000e+00  
 2.789600e-01 -1.185442e+00 0.000000e+00  
 3.381799e-01 -1.228420e+00 0.000000e+00  
 2.699746e-01 -1.120917e+00 0.000000e+00  
 8.764834e-01 -2.000000e+00 0.000000e+00  
 8.020827e-01 -1.847879e+00 0.000000e+00  
 8.763706e-01 -1.891903e+00 0.000000e+00  
 7.236615e-01 -1.722997e+00 0.000000e+00  
 7.998972e-01 -1.768968e+00 0.000000e+00  
 7.220226e-01 -1.650211e+00 0.000000e+00  
 6.405858e-01 -1.602593e+00 0.000000e+00  
 6.510191e-01 -1.505162e+00 0.000000e+00  
 5.661702e-01 -1.461598e+00 0.000000e+00  
 5.605945e-01 -1.396571e+00 0.000000e+00  
 3.266130e-01 -1.059366e+00 0.000000e+00  
 2.964085e-01 -9.577288e-01 0.000000e+00  
 4.170068e-01 -1.206295e+00 0.000000e+00  
 4.747135e-01 -1.263083e+00 0.000000e+00  
 6.199600e-01 -1.336244e+00 0.000000e+00  
 5.749450e-01 -1.235127e+00 0.000000e+00  
 4.434025e-01 -1.117422e+00 0.000000e+00  
 4.219020e-01 -1.078548e+00 0.000000e+00  
 1.027379e+00 -2.000000e+00 0.000000e+00  
 9.520206e-01 -1.848542e+00 0.000000e+00  
 1.026780e+00 -1.891566e+00 0.000000e+00  
 1.176833e+00 -2.000000e+00 0.000000e+00  
 6.996613e-01 -1.481306e+00 0.000000e+00  
 8.806761e-01 -1.717909e+00 0.000000e+00  
 9.519249e-01 -1.759185e+00 0.000000e+00  
 7.983333e-01 -1.595464e+00 0.000000e+00  
 8.752054e-01 -1.642529e+00 0.000000e+00  
 7.955295e-01 -1.537804e+00 0.000000e+00  
 6.948303e-01 -1.343305e+00 0.000000e+00  
 7.248043e-01 -1.389995e+00 0.000000e+00  
 4.694987e-01 -9.828096e-01 0.000000e+00  
 4.295264e-01 -9.063577e-01 0.000000e+00  
 5.932691e-01 -1.197483e+00 0.000000e+00  
 5.609744e-01 -1.124529e+00 0.000000e+00  
 7.405982e-01 -1.255924e+00 0.000000e+00  
 7.003140e-01 -1.187804e+00 0.000000e+00  
 5.983630e-01 -1.049029e+00 0.000000e+00  
 5.700121e-01 -9.944255e-01 0.000000e+00  
 1.326434e+00 -2.000000e+00 0.000000e+00  
 1.101974e+00 -1.847096e+00 0.000000e+00  
 1.176932e+00 -1.889005e+00 0.000000e+00  
 1.024554e+00 -1.720374e+00 0.000000e+00  
 1.100143e+00 -1.760208e+00 0.000000e+00  
 1.249456e+00 -1.847385e+00 0.000000e+00  
 1.327183e+00 -1.891812e+00 0.000000e+00  
 8.606103e-01 -1.476789e+00 0.000000e+00  
 8.368871e-01 -1.391858e+00 0.000000e+00  
 1.026043e+00 -1.614246e+00 0.000000e+00  
 9.626191e-01 -1.583152e+00 0.000000e+00  
 9.435422e-01 -1.500314e+00 0.000000e+00  
 8.327163e-01 -1.257201e+00 0.000000e+00  
 8.690707e-01 -1.343866e+00 0.000000e+00  
 6.112537e-01 -9.083419e-01 0.000000e+00  
 5.613972e-01 -8.306604e-01 0.000000e+00  
 6.989334e-01 -1.055713e+00 0.000000e+00  
 7.326363e-01 -1.116042e+00 0.000000e+00  
 8.324486e-01 -1.115452e+00 0.000000e+00  
 8.707398e-01 -1.198005e+00 0.000000e+00  
 7.404383e-01 -9.710717e-01 0.000000e+00  
 7.014540e-01 -9.099041e-01 0.000000e+00  
 1.478048e+00 -2.000000e+00 0.000000e+00  
 1.630426e+00 -2.000000e+00 0.000000e+00  
 1.398930e+00 -1.849022e+00 0.000000e+00  
 1.478153e+00 -1.893282e+00 0.000000e+00  
 1.086645e+00 -1.587229e+00 0.000000e+00  
 1.173581e+00 -1.714102e+00 0.000000e+00  
 1.251422e+00 -1.759257e+00 0.000000e+00  
 1.172953e+00 -1.642792e+00 0.000000e+00  
 1.399845e+00 -1.760013e+00 0.000000e+00  
 1.320790e+00 -1.720633e+00 0.000000e+00  
 1.003362e+00 -1.437721e+00 0.000000e+00  
 9.609750e-01 -1.343828e+00 0.000000e+00  
 1.077840e+00 -1.445277e+00 0.000000e+00  
 1.110705e+00 -1.494422e+00 0.000000e+00  
 9.612571e-01 -1.197805e+00 0.000000e+00  
 1.004422e+00 -1.281244e+00 0.000000e+00  
 7.428263e-01 -8.231677e-01 0.000000e+00  
 6.771594e-01 -7.387028e-01 0.000000e+00  
 8.320983e-01 -9.723336e-01 0.000000e+00  
 8.702325e-01 -1.052532e+00 0.000000e+00  
 9.624267e-01 -1.053849e+00 0.000000e+00  
 1.003013e+00 -1.129412e+00 0.000000e+00  
 8.296948e-01 -8.171874e-01 0.000000e+00  
 8.690588e-01 -9.136664e-01 0.000000e+00  
 1.549968e+00 -1.848331e+00 0.000000e+00  
 1.630461e+00 -1.895295e+00 0.000000e+00  
 1.783855e+00 -2.000000e+00 0.000000e+00  
 1.705190e+00 -1.848093e+00 0.000000e+00  
 1.781943e+00 -1.893237e+00 0.000000e+00  
 1.551179e+00 -1.768518e+00 0.000000e+00  
 1.463885e+00 -1.720380e+00 0.000000e+00  
 1.321173e+00 -1.613685e+00 0.000000e+00  
 1.226691e+00 -1.493863e+00 0.000000e+00  
 1.250788e+00 -1.586433e+00 0.000000e+00  
 1.374291e+00 -1.584638e+00 0.000000e+00  
 1.469086e+00 -1.638579e+00 0.000000e+00  
 1.084786e+00 -1.282093e+00 0.000000e+00  
 1.130139e+00 -1.352215e+00 0.000000e+00  
 1.259514e+00 -1.444871e+00 0.000000e+00  
 1.207359e+00 -1.353839e+00 0.000000e+00  
 1.091472e+00 -1.129751e+00 0.000000e+00  
 1.132043e+00 -1.201134e+00 0.000000e+00  
 8.574626e-01 -7.785087e-01 0.000000e+00  
 8.465094e-01 -6.986976e-01 0.000000e+00  
 7.679916e-01 -6.451839e-01 0.000000e+00  
 -9.909700e-12 1.001558e+00 0.000000e+00  
 9.699773e-01 -9.123593e-01 0.000000e+00  
 1.006555e+00 -9.772127e-01 0.000000e+00  
 1.088675e+00 -9.819120e-01 0.000000e+00  
 1.132065e+00 -1.057445e+00 0.000000e+00  
 1.004448e+00 -8.325638e-01 0.000000e+00  
 9.799145e-01 -7.880152e-01 0.000000e+00  
 1.929069e+00 -2.000000e+00 0.000000e+00  
 1.704244e+00 -1.768424e+00 0.000000e+00  
 1.618123e+00 -1.723501e+00 0.000000e+00  
 1.862268e+00 -1.844155e+00 0.000000e+00  
 1.934314e+00 -1.887099e+00 0.000000e+00  
 1.857783e+00 -1.762054e+00 0.000000e+00  
 1.768233e+00 -1.723292e+00 0.000000e+00  
 1.617851e+00 -1.642199e+00 0.000000e+00  
 1.533629e+00 -1.596701e+00 0.000000e+00  
 1.391894e+00 -1.499072e+00 0.000000e+00  
 1.326965e+00 -1.437864e+00 0.000000e+00  
 1.535250e+00 -1.516120e+00 0.000000e+00  
 1.468155e+00 -1.472821e+00 0.000000e+00  
 1.220469e+00 -1.205132e+00 0.000000e+00  
 1.258069e+00 -1.278727e+00 0.000000e+00  
 1.343501e+00 -1.287625e+00 0.000000e+00  
 1.374112e+00 -1.338540e+00 0.000000e+00  
 1.263207e+00 -1.135194e+00 0.000000e+00  
 1.227642e+00 -1.053913e+00 0.000000e+00  
 1.254669e+00 -1.008884e+00 0.000000e+00  
 1.007499e+00 -7.012580e-01 0.000000e+00  
 9.420593e-01 -6.403080e-01 0.000000e+00  
 9.428663e-01 -5.883902e-01 0.000000e+00  
 8.549814e-01 -5.235757e-01 0.000000e+00  
 -9.909700e-12 1.133431e+00 0.000000e+00  
 -9.819000e-12 1.215193e+00 0.000000e+00  
 1.259076e-01 1.102962e+00 0.000000e+00  
 1.182275e-01 9.949558e-01 0.000000e+00  
 -9.819000e-12 1.362073e+00 0.000000e+00  
 -1.003520e-11 1.473685e+00 0.000000e+00  
 3.397320e-11 1.622315e+00 0.000000e+00  
 1.111580e+00 -8.370232e-01 0.000000e+00  
 1.146467e+00 -8.952262e-01 0.000000e+00  
 1.209006e+00 -9.045847e-01 0.000000e+00  
 1.147709e+00 -7.461499e-01 0.000000e+00  
 1.078793e+00 -6.824937e-01 0.000000e+00  
 2.003152e+00 -1.853912e+00 0.000000e+00  
 2.087514e+00 -1.922324e+00 0.000000e+00  
 2.088106e+00 -2.000000e+00 0.000000e+00  
 1.764301e+00 -1.631929e+00 0.000000e+00  
 1.684959e+00 -1.597462e+00 0.000000e+00  
 2.022765e+00 -1.780727e+00 0.000000e+00  
 1.916420e+00 -1.714826e+00 0.000000e+00  
 1.998408e+00 -1.736264e+00 0.000000e+00  
 1.826620e+00 -1.590530e+00 0.000000e+00  
 1.899951e+00 -1.619265e+00 0.000000e+00  
 1.677745e+00 -1.501897e+00 0.000000e+00  
 1.610064e+00 -1.473279e+00 0.000000e+00  
 1.483202e+00 -1.353599e+00 0.000000e+00  
 1.597724e+00 -1.369469e+00 0.000000e+00  
 1.369249e+00 -1.141852e+00 0.000000e+00  
 1.504841e+00 -1.217419e+00 0.000000e+00  
 1.394561e+00 -1.194465e+00 0.000000e+00  
 1.406265e+00 -1.061650e+00 0.000000e+00  
 1.348376e+00 -9.916194e-01 0.000000e+00  
 1.280884e+00 -8.445057e-01 0.000000e+00  
 1.372495e+00 -9.142261e-01 0.000000e+00  
 3.397320e-11 1.756552e+00 0.000000e+00  
[...]
 POINT_DATA 1999 
 VECTORS Displacement float 
 0.000000e+00 2.522421e-05 0.000000e+00  
 1.023458e-06 2.497368e-05 0.000000e+00  
 1.358772e-06 2.467068e-05 0.000000e+00  
 0.000000e+00 2.487000e-05 0.000000e+00  
 0.000000e+00 2.461616e-05 0.000000e+00  
 2.131742e-06 2.415612e-05 0.000000e+00  
 1.963661e-06 2.435227e-05 0.000000e+00  
 2.887364e-06 2.380373e-05 0.000000e+00  
 0.000000e+00 2.415484e-05 0.000000e+00  
 2.156146e-06 2.412419e-05 0.000000e+00  
 1.831246e-06 2.419335e-05 0.000000e+00  
 1.782464e-06 2.393506e-05 0.000000e+00  
 0.000000e+00 2.378659e-05 0.000000e+00  
 3.488587e-06 2.276971e-05 0.000000e+00  
 3.845336e-06 2.313976e-05 0.000000e+00  
 4.509486e-06 2.238991e-05 0.000000e+00  
 3.649809e-06 2.329196e-05 0.000000e+00  
 4.280617e-06 2.287861e-05 0.000000e+00  
 2.362135e-06 2.367010e-05 0.000000e+00  
 1.884058e-06 2.355073e-05 0.000000e+00  
 3.472106e-06 2.320774e-05 0.000000e+00  
 4.101846e-06 2.295604e-05 0.000000e+00  
 2.663236e-06 2.322405e-05 0.000000e+00  
 2.364517e-06 2.312098e-05 0.000000e+00  
 0.000000e+00 2.337121e-05 0.000000e+00  
 0.000000e+00 2.299884e-05 0.000000e+00  
 5.180719e-06 2.088560e-05 0.000000e+00  
 5.821428e-06 2.134922e-05 0.000000e+00  
 6.398091e-06 2.049150e-05 0.000000e+00  
 5.846515e-06 2.170428e-05 0.000000e+00  
 6.486884e-06 2.103749e-05 0.000000e+00  
 6.331843e-06 2.142213e-05 0.000000e+00  
 5.719677e-06 2.189365e-05 0.000000e+00  
 0.000000e+00 2.223752e-05 0.000000e+00  
 0.000000e+00 2.123945e-05 0.000000e+00  
 4.562718e-06 2.250163e-05 0.000000e+00  
 4.756365e-06 2.243720e-05 0.000000e+00  
 6.246349e-06 2.155222e-05 0.000000e+00  
 5.716717e-06 2.186189e-05 0.000000e+00  
 3.886717e-06 2.255742e-05 0.000000e+00  
 3.947126e-06 2.244565e-05 0.000000e+00  
 3.322761e-06 2.253866e-05 0.000000e+00  
 3.678915e-06 2.203445e-05 0.000000e+00  
 7.169851e-06 1.874392e-05 0.000000e+00  
 7.943550e-06 1.922987e-05 0.000000e+00  
 8.529956e-06 1.830243e-05 0.000000e+00  
 8.701438e-06 1.890409e-05 0.000000e+00  
 7.989877e-06 1.978987e-05 0.000000e+00  
 7.989123e-06 2.013023e-05 0.000000e+00  
 8.758897e-06 1.936046e-05 0.000000e+00  
 7.240731e-06 2.088331e-05 0.000000e+00  
 8.587778e-06 1.978865e-05 0.000000e+00  
 5.483728e-06 2.156342e-05 0.000000e+00  
 6.589607e-06 2.078528e-05 0.000000e+00  
 6.678038e-06 2.134879e-05 0.000000e+00  
 8.046918e-06 2.043104e-05 0.000000e+00  
 9.349226e-06 1.955457e-05 0.000000e+00  
 7.285457e-06 2.116933e-05 0.000000e+00  
 8.136950e-06 2.067505e-05 0.000000e+00  
 7.935908e-06 2.091758e-05 0.000000e+00  
 9.420223e-06 1.653229e-05 0.000000e+00  
 1.024502e-05 1.692835e-05 0.000000e+00  
 1.086823e-05 1.602358e-05 0.000000e+00  
 1.036762e-05 1.751451e-05 0.000000e+00  
 1.108311e-05 1.657869e-05 0.000000e+00  
 1.104705e-05 1.717003e-05 0.000000e+00  
 1.016994e-05 1.817100e-05 0.000000e+00  
 1.124537e-05 1.749885e-05 0.000000e+00  
 1.017845e-05 1.857864e-05 0.000000e+00  
 1.071270e-05 1.831709e-05 0.000000e+00  
 1.062182e-05 1.996630e-05 0.000000e+00  
 1.257025e-05 1.962614e-05 0.000000e+00  
 1.015998e-05 1.949456e-05 0.000000e+00  
 1.060314e-05 1.893146e-05 0.000000e+00  
 1.250844e-05 1.702456e-05 0.000000e+00  
 1.300082e-05 1.716336e-05 0.000000e+00  
 1.225938e-05 1.867520e-05 0.000000e+00  
 1.257699e-05 1.878387e-05 0.000000e+00  
 1.190033e-05 1.437266e-05 0.000000e+00  
 1.259856e-05 1.469538e-05 0.000000e+00  
 1.330193e-05 1.383592e-05 0.000000e+00  
 1.452726e-05 1.238421e-05 0.000000e+00  
 1.233148e-05 1.658854e-05 0.000000e+00  
 1.291841e-05 1.508919e-05 0.000000e+00  
 1.361973e-05 1.423629e-05 0.000000e+00  
 1.284615e-05 1.568879e-05 0.000000e+00  
 1.362627e-05 1.476119e-05 0.000000e+00  
 1.339176e-05 1.540020e-05 0.000000e+00  
 1.380508e-05 1.583181e-05 0.000000e+00  
 1.378718e-05 1.563678e-05 0.000000e+00  
 1.620887e-05 1.761441e-05 0.000000e+00  
 1.811809e-05 1.796546e-05 0.000000e+00  
 1.394875e-05 1.663950e-05 0.000000e+00  
 1.461494e-05 1.675818e-05 0.000000e+00  
 1.584766e-05 1.449975e-05 0.000000e+00  
 1.616813e-05 1.472342e-05 0.000000e+00  
 1.700946e-05 1.568816e-05 0.000000e+00  
 1.789843e-05 1.592915e-05 0.000000e+00  
 1.726115e-05 1.060821e-05 0.000000e+00  
 1.508710e-05 1.257016e-05 0.000000e+00  
 1.587100e-05 1.180204e-05 0.000000e+00  
 1.523959e-05 1.297191e-05 0.000000e+00  
 1.604420e-05 1.213242e-05 0.000000e+00  
 1.758410e-05 1.068639e-05 0.000000e+00  
 1.844678e-05 1.002286e-05 0.000000e+00  
 1.517351e-05 1.400308e-05 0.000000e+00  
 1.575658e-05 1.382526e-05 0.000000e+00  
 1.642997e-05 1.234928e-05 0.000000e+00  
 1.571818e-05 1.309528e-05 0.000000e+00  
 1.631785e-05 1.287190e-05 0.000000e+00  
 1.749349e-05 1.296929e-05 0.000000e+00  
 1.693103e-05 1.298997e-05 0.000000e+00  
 2.121989e-05 1.484120e-05 0.000000e+00  
 2.349913e-05 1.575702e-05 0.000000e+00  
 1.870894e-05 1.389709e-05 0.000000e+00  
 1.806726e-05 1.368730e-05 0.000000e+00  
 1.983994e-05 1.195978e-05 0.000000e+00  
 1.907960e-05 1.192654e-05 0.000000e+00  
 2.144039e-05 1.263683e-05 0.000000e+00  
 2.251451e-05 1.307723e-05 0.000000e+00  
 2.007702e-05 9.063053e-06 0.000000e+00  
 2.289840e-05 7.774987e-06 0.000000e+00  
 2.013489e-05 9.032230e-06 0.000000e+00  
 2.107920e-05 8.491839e-06 0.000000e+00  
 1.773195e-05 1.133679e-05 0.000000e+00  
 1.777224e-05 1.091074e-05 0.000000e+00  
 1.857531e-05 1.018893e-05 0.000000e+00  
 1.854143e-05 1.051834e-05 0.000000e+00  
 2.104790e-05 8.546268e-06 0.000000e+00  
 2.014097e-05 9.178440e-06 0.000000e+00  
 1.806507e-05 1.157906e-05 0.000000e+00  
 1.852526e-05 1.156529e-05 0.000000e+00  
 1.921870e-05 1.056854e-05 0.000000e+00  
 1.918596e-05 1.044131e-05 0.000000e+00  
 2.063190e-05 1.050847e-05 0.000000e+00  
 2.011639e-05 1.048030e-05 0.000000e+00  
 2.564060e-05 1.193976e-05 0.000000e+00  
 2.804442e-05 1.337522e-05 0.000000e+00  
 2.282138e-05 1.098559e-05 0.000000e+00  
 2.169802e-05 1.087686e-05 0.000000e+00  
 2.313941e-05 9.423836e-06 0.000000e+00  
 2.243680e-05 9.383174e-06 0.000000e+00  
 2.672543e-05 1.016970e-05 0.000000e+00  
 2.474864e-05 9.963655e-06 0.000000e+00  
 2.273562e-05 7.619421e-06 0.000000e+00  
 2.372101e-05 7.222268e-06 0.000000e+00  
 2.568720e-05 6.734650e-06 0.000000e+00  
 2.537050e-05 6.447487e-06 0.000000e+00  
 2.633731e-05 6.195540e-06 0.000000e+00  
 2.347937e-05 7.191005e-06 0.000000e+00  
 2.250064e-05 7.711863e-06 0.000000e+00  
 2.128089e-05 8.576777e-06 0.000000e+00  
 2.108437e-05 8.956175e-06 0.000000e+00  
 2.043719e-05 9.228466e-06 0.000000e+00  
 2.244381e-05 7.846585e-06 0.000000e+00  
 2.339852e-05 7.225520e-06 0.000000e+00  
 2.143747e-05 9.358274e-06 0.000000e+00  
 2.124300e-05 9.249681e-06 0.000000e+00  
 2.218211e-05 8.266809e-06 0.000000e+00  
 2.246527e-05 8.293590e-06 0.000000e+00  
 2.382520e-05 8.165283e-06 0.000000e+00  
 2.335881e-05 8.163649e-06 0.000000e+00  
 2.809111e-05 9.441158e-06 0.000000e+00  
 3.019640e-05 9.388444e-06 0.000000e+00  
 3.149535e-05 1.123279e-05 0.000000e+00  
 0.000000e+00 -2.141031e-05 0.000000e+00  
 2.612883e-05 8.298996e-06 0.000000e+00  
 2.528905e-05 8.207522e-06 0.000000e+00  
 2.634961e-05 7.127291e-06 0.000000e+00  
 2.563272e-05 7.124409e-06 0.000000e+00  
 2.831510e-05 7.246657e-06 0.000000e+00  
 2.905837e-05 7.355105e-06 0.000000e+00  
 2.824955e-05 5.967746e-06 0.000000e+00  
 2.598594e-05 6.048211e-06 0.000000e+00  
 2.497785e-05 6.428983e-06 0.000000e+00  
 2.799977e-05 5.508367e-06 0.000000e+00  
 2.891791e-05 5.378019e-06 0.000000e+00  
 2.848512e-05 5.128665e-06 0.000000e+00  
 2.736759e-05 5.428024e-06 0.000000e+00  
 2.571182e-05 6.013258e-06 0.000000e+00  
 2.483357e-05 6.437017e-06 0.000000e+00  
 2.364748e-05 7.183601e-06 0.000000e+00  
 2.332943e-05 7.478934e-06 0.000000e+00  
 2.567083e-05 5.991514e-06 0.000000e+00  
 2.510741e-05 6.322419e-06 0.000000e+00  
 2.466226e-05 7.129650e-06 0.000000e+00  
 2.423011e-05 7.209575e-06 0.000000e+00  
 2.540363e-05 6.374465e-06 0.000000e+00  
 2.523068e-05 6.396307e-06 0.000000e+00  
 2.630430e-05 6.187520e-06 0.000000e+00  
 2.704233e-05 6.002518e-06 0.000000e+00  
 2.812894e-05 5.416454e-06 0.000000e+00  
 3.129959e-05 6.420295e-06 0.000000e+00  
 3.225143e-05 7.227724e-06 0.000000e+00  
 3.346702e-05 6.951918e-06 0.000000e+00  
 3.479598e-05 8.755556e-06 0.000000e+00  
 0.000000e+00 -2.266530e-05 0.000000e+00  
 0.000000e+00 -2.310319e-05 0.000000e+00  
 4.041671e-06 -2.213574e-05 0.000000e+00  
 4.969360e-06 -2.117553e-05 0.000000e+00  
 0.000000e+00 -2.361209e-05 0.000000e+00  
 0.000000e+00 -2.395101e-05 0.000000e+00  
 0.000000e+00 -2.437609e-05 0.000000e+00  
 2.943281e-05 5.830487e-06 0.000000e+00  
 2.872554e-05 5.800291e-06 0.000000e+00  
 2.931205e-05 5.189711e-06 0.000000e+00  
 3.160432e-05 4.819567e-06 0.000000e+00  
 3.227360e-05 5.282407e-06 0.000000e+00  
 3.021333e-05 4.933726e-06 0.000000e+00  
 3.123786e-05 4.965269e-06 0.000000e+00  
 3.096138e-05 5.335815e-06 0.000000e+00  
 2.805233e-05 5.002132e-06 0.000000e+00  
 2.715192e-05 5.320177e-06 0.000000e+00  
 3.092378e-05 4.516185e-06 0.000000e+00  
 2.972281e-05 4.629978e-06 0.000000e+00  
 3.082600e-05 4.400316e-06 0.000000e+00  
 2.932359e-05 4.468234e-06 0.000000e+00  
 3.017329e-05 4.258622e-06 0.000000e+00  
 2.793413e-05 4.884887e-06 0.000000e+00  
 2.722304e-05 5.197349e-06 0.000000e+00  
 2.665558e-05 5.507432e-06 0.000000e+00  
 2.812575e-05 4.732533e-06 0.000000e+00  
 2.770039e-05 5.206251e-06 0.000000e+00  
 2.857110e-05 4.557975e-06 0.000000e+00  
 2.734443e-05 5.316951e-06 0.000000e+00  
 2.930746e-05 4.399593e-06 0.000000e+00  
 2.960064e-05 4.445257e-06 0.000000e+00  
 3.116769e-05 4.107782e-06 0.000000e+00  
 3.106799e-05 3.780848e-06 0.000000e+00  
 0.000000e+00 -2.478505e-05 0.000000e+00  
 0.000000e+00 -2.517380e-05 0.000000e+00  
 0.000000e+00 -2.547673e-05 0.000000e+00  
 3.686988e-05 6.779357e-06 0.000000e+00  
 3.432739e-05 4.383572e-06 0.000000e+00  
 3.500241e-05 5.181754e-06 0.000000e+00  
 3.630090e-05 4.758073e-06 0.000000e+00  
 2.767805e-06 -2.322113e-05 0.000000e+00  
 2.872576e-06 -2.288415e-05 0.000000e+00  
 4.696876e-06 -2.233240e-05 0.000000e+00  
 4.964783e-06 -2.210679e-05 0.000000e+00  
 8.445903e-06 -2.100898e-05 0.000000e+00  
 1.016095e-05 -2.041277e-05 0.000000e+00  
 1.495176e-05 -1.921705e-05 0.000000e+00  
 3.168691e-06 -2.314729e-05 0.000000e+00  
 3.157719e-06 -2.324027e-05 0.000000e+00  
 1.824543e-06 -2.376774e-05 0.000000e+00  
 2.251255e-06 -2.384922e-05 0.000000e+00  
 1.584615e-06 -2.417200e-05 0.000000e+00  
 2.041057e-06 -2.426268e-05 0.000000e+00  
 1.450590e-06 -2.456809e-05 0.000000e+00  
 3.245267e-05 4.079288e-06 0.000000e+00  
 3.207555e-05 3.765189e-06 0.000000e+00  
 3.502152e-05 3.635436e-06 0.000000e+00  
 3.444672e-05 3.222127e-06 0.000000e+00  
 3.350642e-05 4.903803e-06 0.000000e+00  
 3.562657e-05 4.642807e-06 0.000000e+00  
 3.791382e-05 4.459269e-06 0.000000e+00  
 3.280823e-05 4.119049e-06 0.000000e+00  
 3.373745e-05 4.359563e-06 0.000000e+00  
 3.285216e-05 4.393482e-06 0.000000e+00  
 3.347150e-05 3.809328e-06 0.000000e+00  
 2.923856e-05 4.301687e-06 0.000000e+00  
 3.006791e-05 4.035625e-06 0.000000e+00  
 3.270836e-05 3.627417e-06 0.000000e+00  
 3.253625e-05 3.670808e-06 0.000000e+00  
 3.159433e-05 3.736324e-06 0.000000e+00  
 3.212798e-05 3.420299e-06 0.000000e+00  
 3.116298e-05 3.611230e-06 0.000000e+00  
 2.918068e-05 4.225222e-06 0.000000e+00  
 3.013856e-05 3.838278e-06 0.000000e+00  
 2.913625e-05 4.268222e-06 0.000000e+00  
 3.001903e-05 3.828599e-06 0.000000e+00  
 3.041079e-05 3.688834e-06 0.000000e+00  
 3.036897e-05 3.801641e-06 0.000000e+00  
 3.220129e-05 3.155340e-06 0.000000e+00  
 3.219508e-05 2.994904e-06 0.000000e+00  
 3.357222e-05 2.898061e-06 0.000000e+00  
 3.338269e-05 2.693401e-06 0.000000e+00  
 1.658821e-06 -2.475848e-05 0.000000e+00  
 1.481668e-06 -2.486371e-05 0.000000e+00  
 1.147619e-06 -2.515152e-05 0.000000e+00  
 3.708447e-05 3.911681e-06 0.000000e+00  
 3.847036e-05 3.426717e-06 0.000000e+00  
 3.862581e-05 4.570718e-06 0.000000e+00  
 3.670796e-05 2.837743e-06 0.000000e+00  
 3.724751e-05 2.913642e-06 0.000000e+00  
 1.961611e-05 -1.763148e-05 0.000000e+00  
 2.437743e-05 -1.557133e-05 0.000000e+00  
 6.300938e-06 -2.179604e-05 0.000000e+00  
 5.881811e-06 -2.201432e-05 0.000000e+00  
 9.089304e-06 -2.054124e-05 0.000000e+00  
 9.910648e-06 -2.032080e-05 0.000000e+00  
 1.263783e-05 -1.921272e-05 0.000000e+00  
 1.409123e-05 -1.820987e-05 0.000000e+00  
 1.745924e-05 -1.698067e-05 0.000000e+00  
 6.583292e-06 -2.164007e-05 0.000000e+00  
 5.893308e-06 -2.202726e-05 0.000000e+00  
 3.811773e-06 -2.323741e-05 0.000000e+00  
 4.624207e-06 -2.272128e-05 0.000000e+00  
 4.136516e-06 -2.312425e-05 0.000000e+00  
 3.107739e-06 -2.379515e-05 0.000000e+00  
 6.565257e-06 -2.159473e-05 0.000000e+00  
 3.535250e-06 -2.361981e-05 0.000000e+00  
 2.668811e-06 -2.419573e-05 0.000000e+00  
 3.477354e-05 2.451620e-06 0.000000e+00  
 3.513395e-05 2.676785e-06 0.000000e+00  
 3.671779e-05 2.026612e-06 0.000000e+00  
 3.722955e-05 2.064996e-06 0.000000e+00  
 4.017015e-05 4.365949e-06 0.000000e+00  
 4.024215e-05 4.031293e-06 0.000000e+00  
 3.491576e-05 4.044518e-06 0.000000e+00  
 3.595824e-05 4.142707e-06 0.000000e+00  
 3.701812e-05 3.913192e-06 0.000000e+00  
 3.915881e-05 3.803081e-06 0.000000e+00  
 3.806536e-05 4.049828e-06 0.000000e+00  
 3.529107e-05 3.714384e-06 0.000000e+00  
 3.457443e-05 3.555243e-06 0.000000e+00  
 3.511177e-05 3.283353e-06 0.000000e+00  
 3.394278e-05 3.182409e-06 0.000000e+00  
 3.483450e-05 3.052974e-06 0.000000e+00  
 3.206085e-05 3.163627e-06 0.000000e+00  
 3.120599e-05 3.394274e-06 0.000000e+00  
 3.324897e-05 3.035751e-06 0.000000e+00  
 3.405166e-05 2.910722e-06 0.000000e+00  
 3.371815e-05 2.718617e-06 0.000000e+00  
 3.287153e-05 2.879322e-06 0.000000e+00  
 3.932172e-05 3.598702e-06 0.000000e+00  
 3.163524e-05 3.114035e-06 0.000000e+00  
 3.204468e-05 3.005207e-06 0.000000e+00  
 3.214132e-05 2.895842e-06 0.000000e+00  
 3.195160e-05 2.977528e-06 0.000000e+00  
 3.292357e-05 2.583712e-06 0.000000e+00  
 3.284867e-05 2.680240e-06 0.000000e+00  
 3.566276e-05 1.964889e-06 0.000000e+00  
 3.464069e-05 2.097168e-06 0.000000e+00  
 3.474459e-05 1.929922e-06 0.000000e+00  
 3.555849e-05 1.796313e-06 0.000000e+00  
 3.040436e-06 -2.391749e-05 0.000000e+00  
 2.250863e-06 -2.429514e-05 0.000000e+00  
 3.966406e-05 2.479390e-06 0.000000e+00  
 4.001269e-05 -1.572148e-06 0.000000e+00  
 4.013366e-05 4.864455e-07 0.000000e+00  
 3.877608e-05 1.938861e-06 0.000000e+00  
 3.990860e-05 1.559228e-06 0.000000e+00  
 3.915732e-05 2.271583e-06 0.000000e+00  
 3.904543e-05 1.537538e-06 0.000000e+00  
 3.846119e-05 1.489057e-06 0.000000e+00  
 3.917226e-05 -3.875093e-06 0.000000e+00  
 2.873600e-05 -1.325297e-05 0.000000e+00  
 3.521751e-05 -8.651344e-06 0.000000e+00  
 3.759247e-05 -6.226230e-06 0.000000e+00  
 3.229415e-05 -1.094052e-05 0.000000e+00  
 1.887458e-05 -1.557282e-05 0.000000e+00  
 2.237376e-05 -1.454395e-05 0.000000e+00  
 2.368272e-05 -1.268510e-05 0.000000e+00  
 2.696219e-05 -1.191356e-05 0.000000e+00  
 1.002026e-05 -1.977255e-05 0.000000e+00  
 8.755919e-06 -2.034608e-05 0.000000e+00  
 1.356468e-05 -1.783287e-05 0.000000e+00  
 1.196670e-05 -1.852432e-05 0.000000e+00  
 1.586867e-05 -1.606875e-05 0.000000e+00  
 1.828274e-05 -1.514851e-05 0.000000e+00  
 9.370774e-06 -1.973868e-05 0.000000e+00  
 8.825351e-06 -2.005566e-05 0.000000e+00  
 5.452815e-06 -2.232393e-05 0.000000e+00  
 6.429330e-06 -2.165391e-05 0.000000e+00  
 4.562085e-06 -2.292223e-05 0.000000e+00  
 5.557355e-06 -2.223340e-05 0.000000e+00  
 8.031958e-06 -2.041362e-05 0.000000e+00  
 9.182588e-06 -1.960198e-05 0.000000e+00  
 4.882205e-06 -2.260078e-05 0.000000e+00  
 4.423170e-06 -2.285469e-05 0.000000e+00  
 3.733217e-05 1.495897e-06 0.000000e+00  
 3.694315e-05 1.509632e-06 0.000000e+00  
 3.841494e-05 1.088687e-06 0.000000e+00  
 3.892677e-05 1.043253e-06 0.000000e+00  
 4.238683e-05 4.347059e-06 0.000000e+00  
 4.129048e-05 3.798951e-06 0.000000e+00  
 4.239328e-05 4.000653e-06 0.000000e+00  
 4.135200e-05 3.534328e-06 0.000000e+00  
 4.043705e-05 3.379577e-06 0.000000e+00  
 4.448687e-05 4.382159e-06 0.000000e+00  
 3.746614e-05 3.491951e-06 0.000000e+00  
 3.687665e-05 3.384776e-06 0.000000e+00  
 3.843444e-05 3.368517e-06 0.000000e+00  
 3.713364e-05 3.053846e-06 0.000000e+00  
 3.664387e-05 2.987599e-06 0.000000e+00  
 3.606830e-05 2.651148e-06 0.000000e+00  
 3.699563e-05 2.639817e-06 0.000000e+00  
 3.539971e-05 2.494371e-06 0.000000e+00  
 3.619177e-05 2.441907e-06 0.000000e+00  
 3.375186e-05 2.389308e-06 0.000000e+00  
 3.392903e-05 2.399567e-06 0.000000e+00  
 3.564646e-05 2.234785e-06 0.000000e+00  
 3.528709e-05 2.048856e-06 0.000000e+00  
 3.493220e-05 2.333251e-06 0.000000e+00  
 3.927229e-05 2.978196e-06 0.000000e+00  
 4.055880e-05 3.098524e-06 0.000000e+00  
 3.487121e-05 1.881823e-06 0.000000e+00  
 3.433517e-05 2.140649e-06 0.000000e+00  
 3.394094e-05 2.208951e-06 0.000000e+00  
 3.455094e-05 1.968446e-06 0.000000e+00  
 3.430362e-05 2.040595e-06 0.000000e+00  
 3.512703e-05 1.746279e-06 0.000000e+00  
 3.678401e-05 1.301062e-06 0.000000e+00  
 3.764372e-05 1.101915e-06 0.000000e+00  
 3.704538e-05 1.158278e-06 0.000000e+00  
 3.659650e-05 1.273755e-06 0.000000e+00  
 4.658230e-06 -2.241253e-05 0.000000e+00  
 3.734604e-06 -2.273433e-05 0.000000e+00  
 3.919276e-05 -3.003939e-06 0.000000e+00  
 3.972715e-05 -1.997862e-06 0.000000e+00  
 4.028420e-05 -1.205387e-06 0.000000e+00  
 4.001837e-05 1.356731e-06 0.000000e+00  
 4.053099e-05 2.540826e-07 0.000000e+00  
 4.053070e-05 1.692836e-07 0.000000e+00  
 4.044016e-05 -8.059806e-07 0.000000e+00  
 4.019088e-05 8.359871e-07 0.000000e+00  
 3.978173e-05 1.023412e-06 0.000000e+00  
 4.004731e-05 6.388032e-07 0.000000e+00  
 3.958406e-05 7.515818e-07 0.000000e+00  
 3.812995e-05 -3.499244e-06 0.000000e+00  
 3.724537e-05 -4.955252e-06 0.000000e+00  
 2.821392e-05 -9.801783e-06 0.000000e+00  
 3.082096e-05 -9.185372e-06 0.000000e+00  
 3.217149e-05 -7.294716e-06 0.000000e+00  
 3.570333e-05 -5.282581e-06 0.000000e+00  
 3.451351e-05 -7.156029e-06 0.000000e+00  
 2.312408e-05 -1.227570e-05 0.000000e+00  
 2.011123e-05 -1.334413e-05 0.000000e+00  
 2.754109e-05 -9.307245e-06 0.000000e+00  
 2.438067e-05 -1.063051e-05 0.000000e+00  
 2.820438e-05 -8.173791e-06 0.000000e+00  
 1.239705e-05 -1.768910e-05 0.000000e+00  
 1.140319e-05 -1.825160e-05 0.000000e+00  
 1.416218e-05 -1.634552e-05 0.000000e+00  
 1.575741e-05 -1.552482e-05 0.000000e+00  
 1.765479e-05 -1.394310e-05 0.000000e+00  
 1.979767e-05 -1.293472e-05 0.000000e+00  
 1.073793e-05 -1.829521e-05 0.000000e+00  
 1.186517e-05 -1.752016e-05 0.000000e+00  
 8.022166e-06 -2.030072e-05 0.000000e+00  
 6.736810e-06 -2.110346e-05 0.000000e+00  
 7.034139e-06 -2.103655e-05 0.000000e+00  
 9.396988e-06 -1.905478e-05 0.000000e+00  
 1.082333e-05 -1.803245e-05 0.000000e+00  
 7.018212e-06 -2.077359e-05 0.000000e+00  
 6.303166e-06 -2.103170e-05 0.000000e+00  
 3.897536e-05 7.384982e-07 0.000000e+00  
 3.831276e-05 8.714124e-07 0.000000e+00  
 4.002005e-05 4.500820e-07 0.000000e+00  
 3.951098e-05 5.595932e-07 0.000000e+00  
 4.642284e-05 4.449059e-06 0.000000e+00  
 4.832756e-05 4.538408e-06 0.000000e+00  
 4.444209e-05 4.004554e-06 0.000000e+00  
 4.318970e-05 3.827373e-06 0.000000e+00  
 4.321646e-05 3.510146e-06 0.000000e+00  
 4.229098e-05 3.359646e-06 0.000000e+00  
 4.236556e-05 3.058062e-06 0.000000e+00  
 4.135233e-05 2.918818e-06 0.000000e+00  
 4.491858e-05 3.888891e-06 0.000000e+00  
 4.643271e-05 4.039112e-06 0.000000e+00  
 4.630143e-05 3.990085e-06 0.000000e+00  
 3.856614e-05 2.790598e-06 0.000000e+00  
 3.923305e-05 2.862433e-06 0.000000e+00  
 3.873682e-05 2.444492e-06 0.000000e+00  
 3.798905e-05 2.408438e-06 0.000000e+00  
 3.739854e-05 2.109307e-06 0.000000e+00  
 3.824087e-05 2.119871e-06 0.000000e+00  
 3.674233e-05 1.929703e-06 0.000000e+00  
 3.761778e-05 1.891079e-06 0.000000e+00  
 3.577031e-05 1.692363e-06 0.000000e+00  