# vtk DataFile Version 1.0 
PolyMesh 
ASCII 
 
DATASET POLYDATA 
 
POINTS 15977 float 
5.000000e+00 2.000000e+00 0.000000e+00  
 4.960548e+00 2.000000e+00 0.000000e+00  
 5.000000e+00 1.942100e+00 0.000000e+00  
 5.000000e+00 1.888354e+00 0.000000e+00  
 4.958194e+00 1.943915e+00 0.000000e+00  
 4.951785e+00 1.952711e+00 0.000000e+00  
 4.913014e+00 1.958835e+00 0.000000e+00  
 4.907067e+00 2.000000e+00 0.000000e+00  
 5.000000e+00 1.833930e+00 0.000000e+00  
 4.945500e+00 1.908971e+00 0.000000e+00  
 4.958362e+00 1.888225e+00 0.000000e+00  
 4.944607e+00 1.859509e+00 0.000000e+00  
 4.960805e+00 1.833448e+00 0.000000e+00  
 4.905794e+00 1.909135e+00 0.000000e+00  
 4.895521e+00 1.941317e+00 0.000000e+00  
 4.864059e+00 1.948398e+00 0.000000e+00  
 4.866274e+00 2.000000e+00 0.000000e+00  
 4.820026e+00 2.000000e+00 0.000000e+00  
 5.000000e+00 1.778512e+00 0.000000e+00  
 4.945286e+00 1.805440e+00 0.000000e+00  
 4.962249e+00 1.778224e+00 0.000000e+00  
 4.893790e+00 1.889816e+00 0.000000e+00  
 4.911545e+00 1.857620e+00 0.000000e+00  
 4.897648e+00 1.832909e+00 0.000000e+00  
 4.915333e+00 1.804564e+00 0.000000e+00  
 4.862959e+00 1.886733e+00 0.000000e+00  
 4.845220e+00 1.906458e+00 0.000000e+00  
 4.853067e+00 1.942258e+00 0.000000e+00  
 4.817198e+00 1.958079e+00 0.000000e+00  
 4.798854e+00 1.947428e+00 0.000000e+00  
 4.767789e+00 1.965210e+00 0.000000e+00  
 4.767180e+00 2.000000e+00 0.000000e+00  
 5.000000e+00 1.722817e+00 0.000000e+00  
 4.945895e+00 1.750576e+00 0.000000e+00  
 4.963452e+00 1.722165e+00 0.000000e+00  
 4.916832e+00 1.749977e+00 0.000000e+00  
 4.899598e+00 1.776809e+00 0.000000e+00  
 4.867325e+00 1.830903e+00 0.000000e+00  
 4.850286e+00 1.853052e+00 0.000000e+00  
 4.870987e+00 1.776076e+00 0.000000e+00  
 4.853697e+00 1.799998e+00 0.000000e+00  
 4.801640e+00 1.870863e+00 0.000000e+00  
 4.816933e+00 1.850313e+00 0.000000e+00  
 4.809580e+00 1.899898e+00 0.000000e+00  
 4.794303e+00 1.918311e+00 0.000000e+00  
 4.751947e+00 1.909770e+00 0.000000e+00  
 4.742388e+00 1.946738e+00 0.000000e+00  
 4.717380e+00 1.955475e+00 0.000000e+00  
 4.715855e+00 2.000000e+00 0.000000e+00  
 4.947559e+00 1.696623e+00 0.000000e+00  
 4.966376e+00 1.665131e+00 0.000000e+00  
 5.000000e+00 1.665198e+00 0.000000e+00  
 4.901089e+00 1.721796e+00 0.000000e+00  
 4.917604e+00 1.694863e+00 0.000000e+00  
 4.905526e+00 1.671941e+00 0.000000e+00  
 4.871143e+00 1.721572e+00 0.000000e+00  
 4.854380e+00 1.743912e+00 0.000000e+00  
 4.805809e+00 1.820418e+00 0.000000e+00  
 4.821214e+00 1.797552e+00 0.000000e+00  
 4.809648e+00 1.771022e+00 0.000000e+00  
 4.828696e+00 1.743516e+00 0.000000e+00  
 4.666929e+00 2.000000e+00 0.000000e+00  
 4.769019e+00 1.817709e+00 0.000000e+00  
 4.746303e+00 1.899735e+00 0.000000e+00  
 4.755055e+00 1.843946e+00 0.000000e+00  
 4.765224e+00 1.865729e+00 0.000000e+00  
 4.719793e+00 1.893948e+00 0.000000e+00  
 4.694335e+00 1.914361e+00 0.000000e+00  
 4.697229e+00 1.943297e+00 0.000000e+00  
 4.666033e+00 1.959719e+00 0.000000e+00  
 4.614753e+00 2.000000e+00 0.000000e+00  
 4.921790e+00 1.641353e+00 0.000000e+00  
 4.947557e+00 1.640555e+00 0.000000e+00  
 4.964594e+00 1.607403e+00 0.000000e+00  
 5.000000e+00 1.605862e+00 0.000000e+00  
 4.899179e+00 1.612070e+00 0.000000e+00  
 4.854873e+00 1.685756e+00 0.000000e+00  
 4.868635e+00 1.667887e+00 0.000000e+00  
 4.861914e+00 1.638690e+00 0.000000e+00  
 4.826994e+00 1.687085e+00 0.000000e+00  
 4.809868e+00 1.714189e+00 0.000000e+00  
 4.758166e+00 1.794147e+00 0.000000e+00  
 4.776578e+00 1.765871e+00 0.000000e+00  
 4.767894e+00 1.745474e+00 0.000000e+00  
 4.786106e+00 1.715097e+00 0.000000e+00  
 4.641989e+00 1.945395e+00 0.000000e+00  
 4.614979e+00 1.958638e+00 0.000000e+00  
 4.728333e+00 1.789817e+00 0.000000e+00  
 4.713843e+00 1.841880e+00 0.000000e+00  
 4.705909e+00 1.815373e+00 0.000000e+00  
 4.705463e+00 1.855801e+00 0.000000e+00  
 4.668845e+00 1.863291e+00 0.000000e+00  
 4.643238e+00 1.910892e+00 0.000000e+00  
 4.665241e+00 1.899731e+00 0.000000e+00  
 4.563656e+00 2.000000e+00 0.000000e+00  
 4.591511e+00 1.945104e+00 0.000000e+00  
 4.562628e+00 1.959604e+00 0.000000e+00  
 4.541896e+00 1.947384e+00 0.000000e+00  
 4.939631e+00 1.577805e+00 0.000000e+00  
 4.967689e+00 1.547589e+00 0.000000e+00  
 5.000000e+00 1.548641e+00 0.000000e+00  
 4.908922e+00 1.548828e+00 0.000000e+00  
 4.879486e+00 1.558797e+00 0.000000e+00  
 4.873268e+00 1.579033e+00 0.000000e+00  
 4.839486e+00 1.626538e+00 0.000000e+00  
 4.840213e+00 1.590120e+00 0.000000e+00  
 4.810205e+00 1.640254e+00 0.000000e+00  
 4.805498e+00 1.655095e+00 0.000000e+00  
 4.769529e+00 1.668929e+00 0.000000e+00  
 4.765231e+00 1.688829e+00 0.000000e+00  
 5.000000e+00 1.490152e+00 0.000000e+00  
 5.000000e+00 1.437991e+00 0.000000e+00  
 4.713823e+00 1.754476e+00 0.000000e+00  
 4.732436e+00 1.737429e+00 0.000000e+00  
 4.729541e+00 1.703144e+00 0.000000e+00  
 4.697277e+00 1.752640e+00 0.000000e+00  
 4.590893e+00 1.911465e+00 0.000000e+00  
 4.617017e+00 1.896670e+00 0.000000e+00  
 4.674701e+00 1.804328e+00 0.000000e+00  
 4.669560e+00 1.780003e+00 0.000000e+00  
 4.649113e+00 1.828087e+00 0.000000e+00  
 4.649532e+00 1.846790e+00 0.000000e+00  
 4.616340e+00 1.866338e+00 0.000000e+00  
 4.509528e+00 1.962924e+00 0.000000e+00  
 4.509838e+00 2.000000e+00 0.000000e+00  
 4.539091e+00 1.912396e+00 0.000000e+00  
 4.564902e+00 1.897979e+00 0.000000e+00  
 4.518683e+00 1.903044e+00 0.000000e+00  
 4.490787e+00 1.917355e+00 0.000000e+00  
 4.489868e+00 1.948369e+00 0.000000e+00  
 4.916810e+00 1.517718e+00 0.000000e+00  
 4.946161e+00 1.511150e+00 0.000000e+00  
 4.957361e+00 1.492020e+00 0.000000e+00  
 4.710944e+00 1.690492e+00 0.000000e+00  
 4.896978e+00 1.500083e+00 0.000000e+00  
 4.853815e+00 1.527153e+00 0.000000e+00  
 4.855528e+00 1.520119e+00 0.000000e+00  
 4.823576e+00 1.543903e+00 0.000000e+00  
 4.823363e+00 1.577813e+00 0.000000e+00  
 4.782553e+00 1.606735e+00 0.000000e+00  
 4.788065e+00 1.590291e+00 0.000000e+00  
 4.751764e+00 1.619337e+00 0.000000e+00  
 4.713603e+00 1.656556e+00 0.000000e+00  
 4.746686e+00 1.644230e+00 0.000000e+00  
 5.000000e+00 1.383309e+00 0.000000e+00  
 4.943521e+00 1.461634e+00 0.000000e+00  
 4.960219e+00 1.436877e+00 0.000000e+00  
 4.945888e+00 1.407485e+00 0.000000e+00  
 4.962113e+00 1.383016e+00 0.000000e+00  
 5.000000e+00 1.329071e+00 0.000000e+00  
 4.680976e+00 1.701771e+00 0.000000e+00  
 4.675287e+00 1.721514e+00 0.000000e+00  
 4.640774e+00 1.734313e+00 0.000000e+00  
 4.639993e+00 1.766110e+00 0.000000e+00  
 4.564542e+00 1.865315e+00 0.000000e+00  
 4.588011e+00 1.848851e+00 0.000000e+00  
 4.616708e+00 1.780768e+00 0.000000e+00  
 4.615445e+00 1.805991e+00 0.000000e+00  
 4.588345e+00 1.824602e+00 0.000000e+00  
 4.656124e+00 1.675909e+00 0.000000e+00  
 4.455900e+00 1.960988e+00 0.000000e+00  
 4.453424e+00 2.000000e+00 0.000000e+00  
 4.437765e+00 1.945129e+00 0.000000e+00  
 4.529251e+00 1.850104e+00 0.000000e+00  
 4.513004e+00 1.864957e+00 0.000000e+00  
 4.478707e+00 1.860802e+00 0.000000e+00  
 4.464304e+00 1.900235e+00 0.000000e+00  
 4.449711e+00 1.903958e+00 0.000000e+00  
 4.909121e+00 1.458887e+00 0.000000e+00  
 4.895951e+00 1.472990e+00 0.000000e+00  
 4.691592e+00 1.638838e+00 0.000000e+00  
 4.660203e+00 1.652520e+00 0.000000e+00  
 4.838088e+00 1.487475e+00 0.000000e+00  
 4.855429e+00 1.462409e+00 0.000000e+00  
 4.808056e+00 1.485939e+00 0.000000e+00  
 4.793180e+00 1.504054e+00 0.000000e+00  
 4.797218e+00 1.529806e+00 0.000000e+00  
 4.764864e+00 1.555549e+00 0.000000e+00  
 4.725767e+00 1.595656e+00 0.000000e+00  
 4.759233e+00 1.554583e+00 0.000000e+00  
 4.728033e+00 1.575126e+00 0.000000e+00  
 4.694218e+00 1.611915e+00 0.000000e+00  
 4.946535e+00 1.353733e+00 0.000000e+00  
 4.962660e+00 1.329068e+00 0.000000e+00  
 4.900389e+00 1.422094e+00 0.000000e+00  
 4.913022e+00 1.406117e+00 0.000000e+00  
 4.916666e+00 1.353255e+00 0.000000e+00  
 4.902090e+00 1.373751e+00 0.000000e+00  
 5.000000e+00 1.275560e+00 0.000000e+00  
 4.946643e+00 1.299877e+00 0.000000e+00  
 4.961698e+00 1.275895e+00 0.000000e+00  
 5.000000e+00 1.223461e+00 0.000000e+00  
 5.000000e+00 1.173191e+00 0.000000e+00  
 4.620515e+00 1.718509e+00 0.000000e+00  
 4.622271e+00 1.690246e+00 0.000000e+00  
 4.587708e+00 1.762533e+00 0.000000e+00  
 4.589371e+00 1.732673e+00 0.000000e+00  
 4.528505e+00 1.823979e+00 0.000000e+00  
 4.559197e+00 1.804923e+00 0.000000e+00  
 4.559836e+00 1.777906e+00 0.000000e+00  
 4.635652e+00 1.630095e+00 0.000000e+00  
 4.601456e+00 1.672468e+00 0.000000e+00  
 4.604369e+00 1.642481e+00 0.000000e+00  
 4.503944e+00 1.806655e+00 0.000000e+00  
 4.401557e+00 2.000000e+00 0.000000e+00  
 4.351705e+00 2.000000e+00 0.000000e+00  
 4.401843e+00 1.948330e+00 0.000000e+00  
 4.422872e+00 1.887585e+00 0.000000e+00  
 4.399824e+00 1.897843e+00 0.000000e+00  
 4.466018e+00 1.843219e+00 0.000000e+00  
 4.470248e+00 1.821894e+00 0.000000e+00  
 4.426472e+00 1.853630e+00 0.000000e+00  
 5.000000e+00 1.123338e+00 0.000000e+00  
 4.848900e+00 1.438642e+00 0.000000e+00  
 4.862667e+00 1.419756e+00 0.000000e+00  
 4.668244e+00 1.590931e+00 0.000000e+00  
 4.640464e+00 1.602042e+00 0.000000e+00  
 4.795746e+00 1.450924e+00 0.000000e+00  
 4.812197e+00 1.432908e+00 0.000000e+00  
 4.769753e+00 1.448095e+00 0.000000e+00  
 4.750565e+00 1.494410e+00 0.000000e+00  
 4.746330e+00 1.476779e+00 0.000000e+00  
 4.737796e+00 1.514836e+00 0.000000e+00  
 4.707660e+00 1.520243e+00 0.000000e+00  
 4.674345e+00 1.560266e+00 0.000000e+00  
 4.698351e+00 1.551354e+00 0.000000e+00  
 4.917215e+00 1.300338e+00 0.000000e+00  
 4.902264e+00 1.322511e+00 0.000000e+00  
 4.853244e+00 1.387712e+00 0.000000e+00  
 4.864723e+00 1.371012e+00 0.000000e+00  
 4.857097e+00 1.344818e+00 0.000000e+00  
 4.872632e+00 1.322045e+00 0.000000e+00  
 4.946292e+00 1.247046e+00 0.000000e+00  
 4.959218e+00 1.224108e+00 0.000000e+00  
 4.912909e+00 1.248863e+00 0.000000e+00  
 4.901401e+00 1.269636e+00 0.000000e+00  
[...]
 POINT_DATA 15977 
 VECTORS Displacement float 
 6.244985e-05 -7.339205e-06 0.000000e+00  
 6.205525e-05 -7.956972e-06 0.000000e+00  
 6.335618e-05 -7.165477e-06 0.000000e+00  
 6.419494e-05 -7.002712e-06 0.000000e+00  
 6.290974e-05 -7.825323e-06 0.000000e+00  
 6.270822e-05 -7.952488e-06 0.000000e+00  
 6.222564e-05 -8.579903e-06 0.000000e+00  
 6.152115e-05 -8.796590e-06 0.000000e+00  
 6.504279e-05 -6.834205e-06 0.000000e+00  
 6.332805e-05 -7.918857e-06 0.000000e+00  
 6.377992e-05 -7.653608e-06 0.000000e+00  
 6.408907e-05 -7.781600e-06 0.000000e+00  
 6.465693e-05 -7.446168e-06 0.000000e+00  
 6.292909e-05 -8.544036e-06 0.000000e+00  
 6.232519e-05 -8.802729e-06 0.000000e+00  
 6.190225e-05 -9.319581e-06 0.000000e+00  
 6.111579e-05 -9.438346e-06 0.000000e+00  
 6.065876e-05 -1.016607e-05 0.000000e+00  
 6.590721e-05 -6.657405e-06 0.000000e+00  
 6.493723e-05 -7.602989e-06 0.000000e+00  
 6.553194e-05 -7.249332e-06 0.000000e+00  
 6.310988e-05 -8.674911e-06 0.000000e+00  
 6.378766e-05 -8.296907e-06 0.000000e+00  
 6.403270e-05 -8.440923e-06 0.000000e+00  
 6.465053e-05 -8.073860e-06 0.000000e+00  
 6.285067e-05 -9.152344e-06 0.000000e+00  
 6.236797e-05 -9.491398e-06 0.000000e+00  
 6.188883e-05 -9.474612e-06 0.000000e+00  
 6.128716e-05 -1.008653e-05 0.000000e+00  
 6.127206e-05 -1.034361e-05 0.000000e+00  
 6.068962e-05 -1.088385e-05 0.000000e+00  
 6.014063e-05 -1.099573e-05 0.000000e+00  
 6.678010e-05 -6.473707e-06 0.000000e+00  
 6.579957e-05 -7.419818e-06 0.000000e+00  
 6.642175e-05 -7.049388e-06 0.000000e+00  
 6.551694e-05 -7.879960e-06 0.000000e+00  
 6.492515e-05 -8.237543e-06 0.000000e+00  
 6.376093e-05 -8.914889e-06 0.000000e+00  
 6.324721e-05 -9.251309e-06 0.000000e+00  
 6.465008e-05 -8.690291e-06 0.000000e+00  
 6.410494e-05 -9.037405e-06 0.000000e+00  
 6.248727e-05 -1.007274e-05 0.000000e+00  
 6.295760e-05 -9.770297e-06 0.000000e+00  
 6.211615e-05 -1.003388e-05 0.000000e+00  
 6.167937e-05 -1.032897e-05 0.000000e+00  
 6.139330e-05 -1.096893e-05 0.000000e+00  
 6.072714e-05 -1.122726e-05 0.000000e+00  
 6.034693e-05 -1.164339e-05 0.000000e+00  
 5.964152e-05 -1.179732e-05 0.000000e+00  
 6.666386e-05 -7.219493e-06 0.000000e+00  
 6.735230e-05 -6.814067e-06 0.000000e+00  
 6.769117e-05 -6.276891e-06 0.000000e+00  
 6.580048e-05 -8.043040e-06 0.000000e+00  
 6.639012e-05 -7.693869e-06 0.000000e+00  
 6.663136e-05 -7.815882e-06 0.000000e+00  
 6.550366e-05 -8.521590e-06 0.000000e+00  
 6.498587e-05 -8.857075e-06 0.000000e+00  
 6.331016e-05 -9.856984e-06 0.000000e+00  
 6.381859e-05 -9.545195e-06 0.000000e+00  
 6.411565e-05 -9.649507e-06 0.000000e+00  
 6.473502e-05 -9.265200e-06 0.000000e+00  
 5.916863e-05 -1.255583e-05 0.000000e+00  
 6.298558e-05 -1.042937e-05 0.000000e+00  
 6.149251e-05 -1.102781e-05 0.000000e+00  
 6.244088e-05 -1.072612e-05 0.000000e+00  
 6.220528e-05 -1.063065e-05 0.000000e+00  
 6.131993e-05 -1.142508e-05 0.000000e+00  
 6.075458e-05 -1.188122e-05 0.000000e+00  
 6.033757e-05 -1.192118e-05 0.000000e+00  
 5.978015e-05 -1.245228e-05 0.000000e+00  
 5.866662e-05 -1.335713e-05 0.000000e+00  
 6.728153e-05 -7.455885e-06 0.000000e+00  
 6.755411e-05 -7.035610e-06 0.000000e+00  
 6.825882e-05 -6.647401e-06 0.000000e+00  
 6.864246e-05 -6.066830e-06 0.000000e+00  
 6.752363e-05 -7.731663e-06 0.000000e+00  
 6.590440e-05 -8.673736e-06 0.000000e+00  
 6.632523e-05 -8.398322e-06 0.000000e+00  
 6.672267e-05 -8.418673e-06 0.000000e+00  
 6.560399e-05 -9.124728e-06 0.000000e+00  
 6.500596e-05 -9.477961e-06 0.000000e+00  
 6.324238e-05 -1.053086e-05 0.000000e+00  
 6.386540e-05 -1.015774e-05 0.000000e+00  
 6.409631e-05 -1.023514e-05 0.000000e+00  
 6.475368e-05 -9.858362e-06 0.000000e+00  
 5.976526e-05 -1.278085e-05 0.000000e+00  
 5.929979e-05 -1.323349e-05 0.000000e+00  
 6.301168e-05 -1.098640e-05 0.000000e+00  
 6.206313e-05 -1.136521e-05 0.000000e+00  
 6.239282e-05 -1.141119e-05 0.000000e+00  
 6.176550e-05 -1.153645e-05 0.000000e+00  
 6.128704e-05 -1.212657e-05 0.000000e+00  
 6.030507e-05 -1.266083e-05 0.000000e+00  
 6.069266e-05 -1.228893e-05 0.000000e+00  
 5.817628e-05 -1.413334e-05 0.000000e+00  
 5.927697e-05 -1.355163e-05 0.000000e+00  
 5.877620e-05 -1.403157e-05 0.000000e+00  
 5.875838e-05 -1.430805e-05 0.000000e+00  
 6.848623e-05 -6.957830e-06 0.000000e+00  
 6.926651e-05 -6.390253e-06 0.000000e+00  
 6.957704e-05 -5.857276e-06 0.000000e+00  
 6.865319e-05 -7.372856e-06 0.000000e+00  
 6.819269e-05 -7.891156e-06 0.000000e+00  
 6.779947e-05 -8.054261e-06 0.000000e+00  
 6.669242e-05 -8.745472e-06 0.000000e+00  
 6.728705e-05 -8.627120e-06 0.000000e+00  
 6.617881e-05 -9.256884e-06 0.000000e+00  
 6.589527e-05 -9.375109e-06 0.000000e+00  
 6.531457e-05 -9.987986e-06 0.000000e+00  
 6.495733e-05 -1.011309e-05 0.000000e+00  
 7.055663e-05 -5.636065e-06 0.000000e+00  
 7.145642e-05 -5.433383e-06 0.000000e+00  
 6.341453e-05 -1.111064e-05 0.000000e+00  
 6.386659e-05 -1.076997e-05 0.000000e+00  
 6.437352e-05 -1.071669e-05 0.000000e+00  
 6.327711e-05 -1.136341e-05 0.000000e+00  
 5.978137e-05 -1.346269e-05 0.000000e+00  
 6.026380e-05 -1.302113e-05 0.000000e+00  
 6.225171e-05 -1.186379e-05 0.000000e+00  
 6.257542e-05 -1.187251e-05 0.000000e+00  
 6.163092e-05 -1.232818e-05 0.000000e+00  
 6.134822e-05 -1.237641e-05 0.000000e+00  
 6.071953e-05 -1.294258e-05 0.000000e+00  
 5.821026e-05 -1.483781e-05 0.000000e+00  
 5.766020e-05 -1.494098e-05 0.000000e+00  
 5.925728e-05 -1.424782e-05 0.000000e+00  
 5.972948e-05 -1.381689e-05 0.000000e+00  
 5.919642e-05 -1.452570e-05 0.000000e+00  
 5.870682e-05 -1.498283e-05 0.000000e+00  
 5.823558e-05 -1.508740e-05 0.000000e+00  
 6.924889e-05 -7.143379e-06 0.000000e+00  
 6.965519e-05 -6.626388e-06 0.000000e+00  
 7.009107e-05 -6.371054e-06 0.000000e+00  
 6.438487e-05 -1.097189e-05 0.000000e+00  
 6.934664e-05 -7.423627e-06 0.000000e+00  
 6.845875e-05 -8.222957e-06 0.000000e+00  
 6.859297e-05 -8.175090e-06 0.000000e+00  
 6.787710e-05 -8.766553e-06 0.000000e+00  
 6.731824e-05 -8.865562e-06 0.000000e+00  
 6.643868e-05 -9.604025e-06 0.000000e+00  
 6.676007e-05 -9.469871e-06 0.000000e+00  
 6.592557e-05 -1.012922e-05 0.000000e+00  
 6.494697e-05 -1.083409e-05 0.000000e+00  
 6.547687e-05 -1.027935e-05 0.000000e+00  
 7.243662e-05 -5.214751e-06 0.000000e+00  
 7.047161e-05 -6.506633e-06 0.000000e+00  
 7.107138e-05 -6.131241e-06 0.000000e+00  
 7.144919e-05 -6.287896e-06 0.000000e+00  
 7.205686e-05 -5.912487e-06 0.000000e+00  
 7.346053e-05 -4.991646e-06 0.000000e+00  
 6.390556e-05 -1.147058e-05 0.000000e+00  
 6.353994e-05 -1.161506e-05 0.000000e+00  
 6.299248e-05 -1.218400e-05 0.000000e+00  
 6.249290e-05 -1.228788e-05 0.000000e+00  
 6.022044e-05 -1.372640e-05 0.000000e+00  
 6.070427e-05 -1.332301e-05 0.000000e+00  
 6.203282e-05 -1.268712e-05 0.000000e+00  
 6.163313e-05 -1.277986e-05 0.000000e+00  
 6.107702e-05 -1.324687e-05 0.000000e+00  
 6.405903e-05 -1.178084e-05 0.000000e+00  
 5.771698e-05 -1.562608e-05 0.000000e+00  
 5.711844e-05 -1.577624e-05 0.000000e+00  
 5.777331e-05 -1.584546e-05 0.000000e+00  
 6.009851e-05 -1.421212e-05 0.000000e+00  
 5.971229e-05 -1.449824e-05 0.000000e+00  
 5.943168e-05 -1.499463e-05 0.000000e+00  
 5.869974e-05 -1.532366e-05 0.000000e+00  
 5.849955e-05 -1.554915e-05 0.000000e+00  
 7.017227e-05 -7.093042e-06 0.000000e+00  
 6.979766e-05 -7.360401e-06 0.000000e+00  
 6.500484e-05 -1.112757e-05 0.000000e+00  
 6.446865e-05 -1.165177e-05 0.000000e+00  
 6.896880e-05 -8.372469e-06 0.000000e+00  
 6.957302e-05 -8.015874e-06 0.000000e+00  
 6.869133e-05 -8.862076e-06 0.000000e+00  
 6.823461e-05 -9.151629e-06 0.000000e+00  
 6.784504e-05 -9.155664e-06 0.000000e+00  
 6.709215e-05 -9.744851e-06 0.000000e+00  
 6.604318e-05 -1.047339e-05 0.000000e+00  
 6.705088e-05 -9.832016e-06 0.000000e+00  
 6.639874e-05 -1.038142e-05 0.000000e+00  
 6.546086e-05 -1.101151e-05 0.000000e+00  
 7.244686e-05 -6.106634e-06 0.000000e+00  
 7.308228e-05 -5.723233e-06 0.000000e+00  
 7.073122e-05 -7.136667e-06 0.000000e+00  
 7.114279e-05 -6.869640e-06 0.000000e+00  
 7.215573e-05 -6.658104e-06 0.000000e+00  
 7.162630e-05 -6.974396e-06 0.000000e+00  
 7.454601e-05 -4.766470e-06 0.000000e+00  
 7.350608e-05 -5.949726e-06 0.000000e+00  
 7.415399e-05 -5.582956e-06 0.000000e+00  
 7.572130e-05 -4.549586e-06 0.000000e+00  
 7.706784e-05 -4.378527e-06 0.000000e+00  
 6.303239e-05 -1.244863e-05 0.000000e+00  
 6.348991e-05 -1.234059e-05 0.000000e+00  
 6.202028e-05 -1.307497e-05 0.000000e+00  
 6.249674e-05 -1.296294e-05 0.000000e+00  
 6.048590e-05 -1.414614e-05 0.000000e+00  
 6.108424e-05 -1.362963e-05 0.000000e+00  
 6.150268e-05 -1.354078e-05 0.000000e+00  
 6.457186e-05 -1.196494e-05 0.000000e+00  
 6.355454e-05 -1.260597e-05 0.000000e+00  
 6.405432e-05 -1.247580e-05 0.000000e+00  
 6.050020e-05 -1.446063e-05 0.000000e+00  
 5.661826e-05 -1.653386e-05 0.000000e+00  
 5.613540e-05 -1.725324e-05 0.000000e+00  
 5.737344e-05 -1.637860e-05 0.000000e+00  
 5.847477e-05 -1.589278e-05 0.000000e+00  
 5.809336e-05 -1.625793e-05 0.000000e+00  
 5.956745e-05 -1.512957e-05 0.000000e+00  
 5.992974e-05 -1.500382e-05 0.000000e+00  
 5.901387e-05 -1.573908e-05 0.000000e+00  
 7.921247e-05 -4.420060e-06 0.000000e+00  
 6.992136e-05 -8.062260e-06 0.000000e+00  
 7.039333e-05 -7.780191e-06 0.000000e+00  
 6.553137e-05 -1.135522e-05 0.000000e+00  
 6.506719e-05 -1.181231e-05 0.000000e+00  
 6.916717e-05 -8.970821e-06 0.000000e+00  
 6.964912e-05 -8.656715e-06 0.000000e+00  
 6.894902e-05 -9.382035e-06 0.000000e+00  
 6.796178e-05 -9.808828e-06 0.000000e+00  
 6.821602e-05 -9.829069e-06 0.000000e+00  
 6.748910e-05 -1.006414e-05 0.000000e+00  
 6.708906e-05 -1.055118e-05 0.000000e+00  
 6.608919e-05 -1.117628e-05 0.000000e+00  
 6.648203e-05 -1.078036e-05 0.000000e+00  
 7.320066e-05 -6.518537e-06 0.000000e+00  
 7.260756e-05 -6.844327e-06 0.000000e+00  
 7.087684e-05 -7.859344e-06 0.000000e+00  
 7.129985e-05 -7.623128e-06 0.000000e+00  
 7.171575e-05 -7.691747e-06 0.000000e+00  
 7.231450e-05 -7.372044e-06 0.000000e+00  
 7.463915e-05 -5.834223e-06 0.000000e+00  
 7.530180e-05 -5.520151e-06 0.000000e+00  
 7.425395e-05 -6.499947e-06 0.000000e+00  
 7.368261e-05 -6.749132e-06 0.000000e+00  
 7.586234e-05 -5.787304e-06 0.000000e+00  
 7.665294e-05 -5.508420e-06 0.000000e+00  
 7.728219e-05 -5.743621e-06 0.000000e+00  
 7.825858e-05 -5.393294e-06 0.000000e+00  
 6.513630e-05 -1.212529e-05 0.000000e+00  
 6.300129e-05 -1.316149e-05 0.000000e+00  
 6.252018e-05 -1.328060e-05 0.000000e+00  
 6.201972e-05 -1.374134e-05 0.000000e+00  
 6.150692e-05 -1.387061e-05 0.000000e+00  
 6.100587e-05 -1.434898e-05 0.000000e+00  
 6.463003e-05 -1.261679e-05 0.000000e+00  
 6.410738e-05 -1.275693e-05 0.000000e+00  
 6.359848e-05 -1.325400e-05 0.000000e+00  
 6.306108e-05 -1.339041e-05 0.000000e+00  
 6.100509e-05 -1.460928e-05 0.000000e+00  
 6.008861e-05 -1.527030e-05 0.000000e+00  
 6.048651e-05 -1.512362e-05 0.000000e+00  
 5.562757e-05 -1.799750e-05 0.000000e+00  
 5.681283e-05 -1.713639e-05 0.000000e+00  
 5.697515e-05 -1.700873e-05 0.000000e+00  
 5.658636e-05 -1.756459e-05 0.000000e+00  
 5.616839e-05 -1.789746e-05 0.000000e+00  
 5.798208e-05 -1.658990e-05 0.000000e+00  
 5.764232e-05 -1.688074e-05 0.000000e+00  
 5.908216e-05 -1.596956e-05 0.000000e+00  
 5.854481e-05 -1.649961e-05 0.000000e+00  
 5.954377e-05 -1.582715e-05 0.000000e+00  
 8.194273e-05 -4.510422e-06 0.000000e+00  
 8.037384e-05 -4.538605e-06 0.000000e+00  
 7.978005e-05 -4.703240e-06 0.000000e+00  
 8.017071e-05 -4.651440e-06 0.000000e+00  
 7.851250e-05 -5.509707e-06 0.000000e+00  
 7.920286e-05 -5.162626e-06 0.000000e+00  
 7.021162e-05 -8.694763e-06 0.000000e+00  
 7.047570e-05 -8.533866e-06 0.000000e+00  
 6.567350e-05 -1.197146e-05 0.000000e+00  
 6.615197e-05 -1.150667e-05 0.000000e+00  
 6.982950e-05 -9.308811e-06 0.000000e+00  
 6.929822e-05 -9.560106e-06 0.000000e+00  
 6.886451e-05 -1.010742e-05 0.000000e+00  
 6.814348e-05 -1.030287e-05 0.000000e+00  
 6.775830e-05 -1.064879e-05 0.000000e+00  
 6.723391e-05 -1.081200e-05 0.000000e+00  
 6.670824e-05 -1.134338e-05 0.000000e+00  
 7.324473e-05 -7.368464e-06 0.000000e+00  
 7.274032e-05 -7.568246e-06 0.000000e+00  
 7.120178e-05 -8.530892e-06 0.000000e+00  
 7.223170e-05 -8.188650e-06 0.000000e+00  
 7.144301e-05 -8.360039e-06 0.000000e+00  
 7.543484e-05 -6.464285e-06 0.000000e+00  
 7.475224e-05 -6.722391e-06 0.000000e+00  
 7.431270e-05 -7.308333e-06 0.000000e+00  
 7.364594e-05 -7.567529e-06 0.000000e+00  
 7.593895e-05 -6.643599e-06 0.000000e+00  
 7.669509e-05 -6.356024e-06 0.000000e+00  
 7.706795e-05 -6.439240e-06 0.000000e+00  
 7.783209e-05 -6.077109e-06 0.000000e+00  
 6.572384e-05 -1.227221e-05 0.000000e+00  
 6.467811e-05 -1.289876e-05 0.000000e+00  
 6.520785e-05 -1.275828e-05 0.000000e+00  
 6.201116e-05 -1.411285e-05 0.000000e+00  
 6.249068e-05 -1.398907e-05 0.000000e+00  
 6.155321e-05 -1.450302e-05 0.000000e+00  
 6.256242e-05 -1.414917e-05 0.000000e+00  
 6.362672e-05 -1.353837e-05 0.000000e+00  
 6.416160e-05 -1.339230e-05 0.000000e+00  
 6.318549e-05 -1.395888e-05 0.000000e+00  
 6.143770e-05 -1.489672e-05 0.000000e+00  
 6.065042e-05 -1.540646e-05 0.000000e+00  
 5.510546e-05 -1.874824e-05 0.000000e+00  
 5.965401e-05 -1.608136e-05 0.000000e+00  
 6.052543e-05 -1.558943e-05 0.000000e+00  
 5.574779e-05 -1.858645e-05 0.000000e+00  
 5.605698e-05 -1.829804e-05 0.000000e+00  
 5.952662e-05 -1.626301e-05 0.000000e+00  
 5.742605e-05 -1.734607e-05 0.000000e+00  
 5.708137e-05 -1.758402e-05 0.000000e+00  
 5.672043e-05 -1.807625e-05 0.000000e+00  
 5.780497e-05 -1.732208e-05 0.000000e+00  
 5.851754e-05 -1.675764e-05 0.000000e+00  
 5.878765e-05 -1.675337e-05 0.000000e+00  
 5.462937e-05 -1.942090e-05 0.000000e+00  
 8.200266e-05 -4.762792e-06 0.000000e+00  
 8.256473e-05 -4.728384e-06 0.000000e+00  
 8.127440e-05 -5.068772e-06 0.000000e+00  
 8.127890e-05 -4.990009e-06 0.000000e+00  
 7.953626e-05 -5.288275e-06 0.000000e+00  
 7.909817e-05 -5.277969e-06 0.000000e+00  
 8.038969e-05 -5.291867e-06 0.000000e+00  
 8.007501e-05 -5.108441e-06 0.000000e+00  
 7.942235e-05 -5.080032e-06 0.000000e+00  
 8.087933e-05 -5.254093e-06 0.000000e+00  
 7.798881e-05 -6.155391e-06 0.000000e+00  
 7.858218e-05 -5.810130e-06 0.000000e+00  
 7.098683e-05 -8.958217e-06 0.000000e+00  
 7.017345e-05 -9.442959e-06 0.000000e+00  
 7.004853e-05 -9.727302e-06 0.000000e+00  
 6.679673e-05 -1.163255e-05 0.000000e+00  
 6.626972e-05 -1.212809e-05 0.000000e+00  
 6.896295e-05 -1.032107e-05 0.000000e+00  
 6.928751e-05 -1.026016e-05 0.000000e+00  
 6.830061e-05 -1.090813e-05 0.000000e+00  
 6.781963e-05 -1.103911e-05 0.000000e+00  
 6.730702e-05 -1.148636e-05 0.000000e+00  
 6.630940e-05 -1.240898e-05 0.000000e+00  
 7.237561e-05 -8.401480e-06 0.000000e+00  
 7.322362e-05 -8.099095e-06 0.000000e+00  
 7.203360e-05 -8.815866e-06 0.000000e+00  
 7.137273e-05 -9.127543e-06 0.000000e+00  
 7.540988e-05 -7.202779e-06 0.000000e+00  
 7.471616e-05 -7.480423e-06 0.000000e+00  
 7.424975e-05 -7.981663e-06 0.000000e+00  
 7.346993e-05 -8.294110e-06 0.000000e+00  
 7.646885e-05 -7.008373e-06 0.000000e+00  
 7.578854e-05 -7.319280e-06 0.000000e+00  
 7.747096e-05 -6.645111e-06 0.000000e+00  
 7.672300e-05 -7.040747e-06 0.000000e+00  
 6.524775e-05 -1.304026e-05 0.000000e+00  
 6.577104e-05 -1.290856e-05 0.000000e+00  
 6.469681e-05 -1.354345e-05 0.000000e+00  
 6.420365e-05 -1.365905e-05 0.000000e+00  
 6.172733e-05 -1.493727e-05 0.000000e+00  
 6.211165e-05 -1.471384e-05 0.000000e+00  
 6.255305e-05 -1.477869e-05 0.000000e+00  
 6.358588e-05 -1.422381e-05 0.000000e+00  
 6.317607e-05 -1.429333e-05 0.000000e+00  
 5.413902e-05 -2.010226e-05 0.000000e+00  
 6.135591e-05 -1.552910e-05 0.000000e+00  
 6.062937e-05 -1.579476e-05 0.000000e+00  
 5.567754e-05 -1.889705e-05 0.000000e+00  
 5.525902e-05 -1.928758e-05 0.000000e+00  
 6.019542e-05 -1.632428e-05 0.000000e+00  
 5.972086e-05 -1.653124e-05 0.000000e+00  
 5.676436e-05 -1.821224e-05 0.000000e+00  
 5.623983e-05 -1.876767e-05 0.000000e+00  
 5.924359e-05 -1.701961e-05 0.000000e+00  
 5.869682e-05 -1.715580e-05 0.000000e+00  
 5.725441e-05 -1.808009e-05 0.000000e+00  
 5.775365e-05 -1.764509e-05 0.000000e+00  
 5.824554e-05 -1.753999e-05 0.000000e+00  
 5.519519e-05 -1.956105e-05 0.000000e+00  
 5.474579e-05 -1.997460e-05 0.000000e+00  
 8.142685e-05 -4.842138e-06 0.000000e+00  
 8.083103e-05 -5.230779e-06 0.000000e+00  
 8.133537e-05 -4.798929e-06 0.000000e+00  
 8.150567e-05 -4.676528e-06 0.000000e+00  
 8.173205e-05 -4.690015e-06 0.000000e+00  
 8.188736e-05 -4.422163e-06 0.000000e+00  
 8.213669e-05 -4.174562e-06 0.000000e+00  
 7.866941e-05 -5.957222e-06 0.000000e+00  
 8.016747e-05 -5.623337e-06 0.000000e+00  
 7.938980e-05 -5.829330e-06 0.000000e+00  
 7.999183e-05 -5.578370e-06 0.000000e+00  
 7.918650e-05 -5.698363e-06 0.000000e+00  
 7.988027e-05 -5.801450e-06 0.000000e+00  
 7.997072e-05 -5.784558e-06 0.000000e+00  
 8.054663e-05 -5.385884e-06 0.000000e+00  
 7.760973e-05 -6.743119e-06 0.000000e+00  
 7.827989e-05 -6.355481e-06 0.000000e+00  
 7.727578e-05 -7.073339e-06 0.000000e+00  
 7.100022e-05 -9.610621e-06 0.000000e+00  
 7.047205e-05 -9.863550e-06 0.000000e+00  
 6.940820e-05 -1.061583e-05 0.000000e+00  
 7.004017e-05 -1.038279e-05 0.000000e+00  
 6.690200e-05 -1.225939e-05 0.000000e+00  
 6.736586e-05 -1.183849e-05 0.000000e+00  
 6.841737e-05 -1.121903e-05 0.000000e+00  
 6.896661e-05 -1.102940e-05 0.000000e+00  
 6.794958e-05 -1.164502e-05 0.000000e+00  
 6.580955e-05 -1.316464e-05 0.000000e+00  
 6.689686e-05 -1.252543e-05 0.000000e+00  
 6.634238e-05 -1.303036e-05 0.000000e+00  
 7.307807e-05 -8.724905e-06 0.000000e+00  
 7.235581e-05 -9.040514e-06 0.000000e+00  
 7.195183e-05 -9.482197e-06 0.000000e+00  
 7.134010e-05 -9.752052e-06 0.000000e+00  
 7.524605e-05 -7.823218e-06 0.000000e+00  
 7.453735e-05 -8.140842e-06 0.000000e+00  
 7.408704e-05 -8.577493e-06 0.000000e+00  
 7.334085e-05 -8.906366e-06 0.000000e+00  
 7.620724e-05 -7.588694e-06 0.000000e+00  
 7.553123e-05 -7.934273e-06 0.000000e+00  
 7.638747e-05 -7.584774e-06 0.000000e+00  
 6.139216e-05 -1.557227e-05 0.000000e+00  
 6.525446e-05 -1.367334e-05 0.000000e+00  
 6.472073e-05 -1.381086e-05 0.000000e+00  
 6.361074e-05 -1.442779e-05 0.000000e+00  
 6.420694e-05 -1.428100e-05 0.000000e+00  
 6.238750e-05 -1.515638e-05 0.000000e+00  
 6.227937e-05 -1.524713e-05 0.000000e+00  
 6.309629e-05 -1.495739e-05 0.000000e+00  
 5.363789e-05 -2.078711e-05 0.000000e+00  
 5.468494e-05 -2.024290e-05 0.000000e+00  
 5.421956e-05 -2.066224e-05 0.000000e+00  
 6.038636e-05 -1.647968e-05 0.000000e+00  
 6.111328e-05 -1.604275e-05 0.000000e+00  
 6.024462e-05 -1.671498e-05 0.000000e+00  
 5.573326e-05 -1.945602e-05 0.000000e+00  
 5.624193e-05 -1.896617e-05 0.000000e+00  
 5.925556e-05 -1.725254e-05 0.000000e+00  
 5.956979e-05 -1.719893e-05 0.000000e+00  
 5.673503e-05 -1.884858e-05 0.000000e+00  
 5.723253e-05 -1.841682e-05 0.000000e+00  
 5.863376e-05 -1.778465e-05 0.000000e+00  
 5.818352e-05 -1.788058e-05 0.000000e+00  
 5.768707e-05 -1.829934e-05 0.000000e+00  
 5.518886e-05 -2.014639e-05 0.000000e+00  
 5.569769e-05 -1.967654e-05 0.000000e+00  
 8.052691e-05 -5.340831e-06 0.000000e+00  
 8.090486e-05 -5.042198e-06 0.000000e+00  
 8.094208e-05 -4.964100e-06 0.000000e+00  
 8.141647e-05 -4.631752e-06 0.000000e+00  
 8.131050e-05 -4.705456e-06 0.000000e+00  
 8.252111e-05 -3.885677e-06 0.000000e+00  
 8.142032e-05 -4.634404e-06 0.000000e+00  
 8.173783e-05 -4.423158e-06 0.000000e+00  
 8.178209e-05 -4.420200e-06 0.000000e+00  
 8.215151e-05 -4.169222e-06 0.000000e+00  
 7.841493e-05 -6.490792e-06 0.000000e+00  
 7.914568e-05 -6.239686e-06 0.000000e+00  
 7.896187e-05 -6.199984e-06 0.000000e+00  
 7.895111e-05 -6.403045e-06 0.000000e+00  
 7.969956e-05 -5.974164e-06 0.000000e+00  
 7.918897e-05 -6.338111e-06 0.000000e+00  
 7.976111e-05 -5.947451e-06 0.000000e+00  
 8.027082e-05 -5.536873e-06 0.000000e+00  
 7.799118e-05 -6.858107e-06 0.000000e+00  
 7.734874e-05 -7.198383e-06 0.000000e+00  