# vtk DataFile Version 1.0 
PolyMesh 
ASCII 
 
DATASET POLYDATA 
 
POINTS 1194 float 
5.443470e-11 -2.000000e+00 0.000000e+00  
 5.443470e-11 -1.856010e+00 0.000000e+00  
 4.113320e-11 -1.682733e+00 0.000000e+00  
 1.529081e-01 -1.832278e+00 0.000000e+00  
 2.092156e-01 -1.882924e+00 0.000000e+00  
 2.077500e-01 -2.000000e+00 0.000000e+00  
 4.187120e-11 -1.511245e+00 0.000000e+00  
 1.597396e-01 -1.676641e+00 0.000000e+00  
 1.319454e-01 -1.517135e+00 0.000000e+00  
 4.187120e-11 -1.341631e+00 0.000000e+00  
 4.183347e-01 -2.000000e+00 0.000000e+00  
 3.404976e-01 -1.756270e+00 0.000000e+00  
 3.354575e-01 -1.820234e+00 0.000000e+00  
 2.573534e-01 -1.670440e+00 0.000000e+00  
 4.193996e-01 -1.896888e+00 0.000000e+00  
 1.789285e-01 -1.472603e+00 0.000000e+00  
 1.373879e-01 -1.343619e+00 0.000000e+00  
 2.647068e-01 -1.480845e+00 0.000000e+00  
 3.130446e-01 -1.570246e+00 0.000000e+00  
 4.320000e-11 -1.163322e+00 0.000000e+00  
 4.861550e-11 -1.003641e+00 0.000000e+00  
 1.840689e-01 -1.286339e+00 0.000000e+00  
 1.486909e-01 -1.172103e+00 0.000000e+00  
 5.347819e-01 -1.825944e+00 0.000000e+00  
 6.223585e-01 -1.882103e+00 0.000000e+00  
 6.259179e-01 -2.000000e+00 0.000000e+00  
 5.259213e-01 -1.720924e+00 0.000000e+00  
 4.326549e-01 -1.576422e+00 0.000000e+00  
 4.609044e-01 -1.686621e+00 0.000000e+00  
 3.381464e-01 -1.392004e+00 0.000000e+00  
 2.967500e-01 -1.296572e+00 0.000000e+00  
 4.714553e-01 -1.523094e+00 0.000000e+00  
 4.179531e-01 -1.405387e+00 0.000000e+00  
 1.961425e-01 -1.110444e+00 0.000000e+00  
 1.701950e-01 -9.891042e-01 0.000000e+00  
 3.555088e-01 -1.213099e+00 0.000000e+00  
 3.340815e-01 -1.134953e+00 0.000000e+00  
 6.225143e-01 -1.667615e+00 0.000000e+00  
 7.224830e-01 -1.734199e+00 0.000000e+00  
 7.236138e-01 -1.813986e+00 0.000000e+00  
 8.210928e-01 -1.878227e+00 0.000000e+00  
 8.220882e-01 -2.000000e+00 0.000000e+00  
 6.319116e-01 -1.563708e+00 0.000000e+00  
 5.719329e-01 -1.513038e+00 0.000000e+00  
 4.924780e-01 -1.248448e+00 0.000000e+00  
 5.073564e-01 -1.317752e+00 0.000000e+00  
 6.042857e-01 -1.370264e+00 0.000000e+00  
 3.834728e-01 -1.062093e+00 0.000000e+00  
 3.418100e-01 -9.435375e-01 0.000000e+00  
 5.484955e-01 -1.169313e+00 0.000000e+00  
 5.062264e-01 -1.070322e+00 0.000000e+00  
 1.017182e+00 -2.000000e+00 0.000000e+00  
 7.357636e-01 -1.527310e+00 0.000000e+00  
 8.239805e-01 -1.661953e+00 0.000000e+00  
 8.214970e-01 -1.593250e+00 0.000000e+00  
 9.200037e-01 -1.726710e+00 0.000000e+00  
 9.235962e-01 -1.811802e+00 0.000000e+00  
 1.015331e+00 -1.870324e+00 0.000000e+00  
 6.749880e-01 -1.348283e+00 0.000000e+00  
 7.536807e-01 -1.422299e+00 0.000000e+00  
 7.094438e-01 -1.248203e+00 0.000000e+00  
 6.614735e-01 -1.174627e+00 0.000000e+00  
 5.570533e-01 -9.879358e-01 0.000000e+00  
 4.946725e-01 -8.728607e-01 0.000000e+00  
 1.206400e+00 -2.000000e+00 0.000000e+00  
 7.164992e-01 -1.061788e+00 0.000000e+00  
 6.663171e-01 -9.869919e-01 0.000000e+00  
 1.117488e+00 -1.809998e+00 0.000000e+00  
 1.205390e+00 -1.858304e+00 0.000000e+00  
 8.855815e-01 -1.385430e+00 0.000000e+00  
 9.267805e-01 -1.517351e+00 0.000000e+00  
 1.005574e+00 -1.545576e+00 0.000000e+00  
 1.026209e+00 -1.655097e+00 0.000000e+00  
 1.108412e+00 -1.695757e+00 0.000000e+00  
 8.991544e-01 -1.359659e+00 0.000000e+00  
 8.342458e-01 -1.236825e+00 0.000000e+00  
 8.780604e-01 -1.155091e+00 0.000000e+00  
 8.213720e-01 -1.064115e+00 0.000000e+00  
 7.128464e-01 -8.834716e-01 0.000000e+00  
 6.321679e-01 -7.790915e-01 0.000000e+00  
 5.383700e-11 1.147003e+00 0.000000e+00  
 5.383700e-11 1.004502e+00 0.000000e+00  
 4.737890e-11 1.319822e+00 0.000000e+00  
 4.869590e-11 1.483304e+00 0.000000e+00  
 4.398570e-11 1.648531e+00 0.000000e+00  
 1.394357e+00 -2.000000e+00 0.000000e+00  
 1.296561e+00 -1.807663e+00 0.000000e+00  
 1.396055e+00 -1.865816e+00 0.000000e+00  
 1.588871e+00 -2.000000e+00 0.000000e+00  
 8.835161e-01 -9.541645e-01 0.000000e+00  
 8.185877e-01 -8.709793e-01 0.000000e+00  
 1.207544e+00 -1.636229e+00 0.000000e+00  
 1.301932e+00 -1.694692e+00 0.000000e+00  
 1.103989e+00 -1.467602e+00 0.000000e+00  
 1.001183e+00 -1.331470e+00 0.000000e+00  
 1.104449e+00 -1.430929e+00 0.000000e+00  
 1.207277e+00 -1.545645e+00 0.000000e+00  
 9.896911e-01 -1.148874e+00 0.000000e+00  
 1.040972e+00 -1.235564e+00 0.000000e+00  
 9.719193e-01 -9.534731e-01 0.000000e+00  
 1.031167e+00 -1.071909e+00 0.000000e+00  
 8.596716e-01 -7.603406e-01 0.000000e+00  
 7.497260e-01 -6.671496e-01 0.000000e+00  
 1.871974e-01 9.861655e-01 0.000000e+00  
 5.572760e-11 1.841239e+00 0.000000e+00  
 5.572770e-11 2.000000e+00 0.000000e+00  
 2.089064e-01 1.129120e+00 0.000000e+00  
 1.771134e-01 1.314910e+00 0.000000e+00  
 1.742766e-01 1.165209e+00 0.000000e+00  
 1.914928e-01 1.330275e+00 0.000000e+00  
 1.661580e-01 1.480831e+00 0.000000e+00  
 2.002299e-01 1.523278e+00 0.000000e+00  
 1.640202e-01 1.656963e+00 0.000000e+00  
 1.868424e-01 1.691152e+00 0.000000e+00  
 1.536297e-01 1.822053e+00 0.000000e+00  
 1.487283e+00 -1.810272e+00 0.000000e+00  
 1.590822e+00 -1.871608e+00 0.000000e+00  
 1.390759e+00 -1.650189e+00 0.000000e+00  
 1.490027e+00 -1.705858e+00 0.000000e+00  
 1.681236e+00 -1.812789e+00 0.000000e+00  
 1.790987e+00 -1.883642e+00 0.000000e+00  
 1.792732e+00 -2.000000e+00 0.000000e+00  
 1.027773e+00 -8.861655e-01 0.000000e+00  
 1.002553e+00 -7.733449e-01 0.000000e+00  
 9.388093e-01 -7.371974e-01 0.000000e+00  
 1.326971e+00 -1.473104e+00 0.000000e+00  
 1.399537e+00 -1.515274e+00 0.000000e+00  
 1.306615e+00 -1.371972e+00 0.000000e+00  
 1.175325e+00 -1.231324e+00 0.000000e+00  
 1.207033e+00 -1.336844e+00 0.000000e+00  
 1.161031e+00 -1.057569e+00 0.000000e+00  
 1.207649e+00 -1.180142e+00 0.000000e+00  
 1.189682e+00 -1.007664e+00 0.000000e+00  
 1.145396e+00 -9.022836e-01 0.000000e+00  
 9.563934e-01 -5.857771e-01 0.000000e+00  
 8.569422e-01 -5.239451e-01 0.000000e+00  
 1.036529e+00 -5.622398e-01 0.000000e+00  
 3.434312e-01 1.150016e+00 0.000000e+00  
 4.047327e-01 1.054860e+00 0.000000e+00  
 3.581903e-01 9.380397e-01 0.000000e+00  
 1.994247e+00 -2.000000e+00 0.000000e+00  
 2.190556e-01 1.893813e+00 0.000000e+00  
 2.173940e-01 2.000000e+00 0.000000e+00  
 3.794405e-01 1.234586e+00 0.000000e+00  
 3.230375e-01 1.330543e+00 0.000000e+00  
 3.776754e-01 1.429753e+00 0.000000e+00  
 3.252151e-01 1.519014e+00 0.000000e+00  
 3.858423e-01 1.631513e+00 0.000000e+00  
 3.358720e-01 1.706467e+00 0.000000e+00  
 3.653068e-01 1.812594e+00 0.000000e+00  
 5.133216e-01 1.250626e+00 0.000000e+00  
 1.483985e+00 -1.485716e+00 0.000000e+00  
 1.687128e+00 -1.722129e+00 0.000000e+00  
 1.579386e+00 -1.650833e+00 0.000000e+00  
 1.585499e+00 -1.573646e+00 0.000000e+00  
 1.769620e+00 -1.671235e+00 0.000000e+00  
 1.883066e+00 -1.728051e+00 0.000000e+00  
 1.891581e+00 -1.806408e+00 0.000000e+00  
 1.991782e+00 -1.864014e+00 0.000000e+00  
 1.521396e+00 -1.387861e+00 0.000000e+00  
 1.217193e+00 -8.022371e-01 0.000000e+00  
 1.138461e+00 -6.488992e-01 0.000000e+00  
 1.132034e+00 -7.045649e-01 0.000000e+00  
 1.392298e+00 -1.287732e+00 0.000000e+00  
 1.480500e+00 -1.301639e+00 0.000000e+00  
 1.338806e+00 -1.171055e+00 0.000000e+00  
 1.262077e+00 -8.012295e-01 0.000000e+00  
 1.317013e+00 -9.912856e-01 0.000000e+00  
 1.379610e+00 -1.098248e+00 0.000000e+00  
 1.351667e+00 -9.177082e-01 0.000000e+00  
 9.372936e-01 -3.598875e-01 0.000000e+00  
 1.083784e+00 -4.327210e-01 0.000000e+00  
 1.074589e+00 -4.118125e-01 0.000000e+00  
 1.235814e+00 -5.850889e-01 0.000000e+00  
 1.226387e+00 -4.799841e-01 0.000000e+00  
 5.714188e-01 1.137986e+00 0.000000e+00  
 5.416412e-01 1.071690e+00 0.000000e+00  
 5.890804e-01 9.762019e-01 0.000000e+00  
 5.236591e-01 8.568042e-01 0.000000e+00  
 6.535666e-01 7.608727e-01 0.000000e+00  
 2.188201e+00 -2.000000e+00 0.000000e+00  
 2.382773e+00 -2.000000e+00 0.000000e+00  
 2.091987e+00 -1.801899e+00 0.000000e+00  
 2.189953e+00 -1.865050e+00 0.000000e+00  
 4.251608e-01 1.848166e+00 0.000000e+00  
 4.343543e-01 2.000000e+00 0.000000e+00  
 5.490161e-01 1.322444e+00 0.000000e+00  
 4.943861e-01 1.430528e+00 0.000000e+00  
 4.931396e-01 1.625733e+00 0.000000e+00  
 5.402504e-01 1.504888e+00 0.000000e+00  
 5.518295e-01 1.692981e+00 0.000000e+00  
 5.408851e-01 1.795612e+00 0.000000e+00  
 7.101856e-01 1.162483e+00 0.000000e+00  
 7.407667e-01 1.249454e+00 0.000000e+00  
 6.757292e-01 1.335639e+00 0.000000e+00  
 9.869650e-01 -1.853042e-01 0.000000e+00  
 1.675505e+00 -1.393357e+00 0.000000e+00  
 1.696827e+00 -1.503686e+00 0.000000e+00  
 1.775521e+00 -1.545908e+00 0.000000e+00  
 1.983096e+00 -1.629928e+00 0.000000e+00  
 1.852914e+00 -1.512548e+00 0.000000e+00  
 2.092864e+00 -1.714514e+00 0.000000e+00  
 1.547879e+00 -1.220020e+00 0.000000e+00  
 1.713455e+00 -1.336167e+00 0.000000e+00  
 1.680606e+00 -1.243181e+00 0.000000e+00  
 1.336134e+00 -6.331563e-01 0.000000e+00  
 1.348703e+00 -7.068254e-01 0.000000e+00  
 1.512599e+00 -1.082235e+00 0.000000e+00  
 1.460511e+00 -7.592917e-01 0.000000e+00  
 1.508843e+00 -9.263600e-01 0.000000e+00  
 1.453564e+00 -8.887275e-01 0.000000e+00  
 1.148973e+00 -2.826661e-01 0.000000e+00  
 1.111859e+00 -2.080525e-01 0.000000e+00  
 1.293222e+00 -4.175951e-01 0.000000e+00  
 1.267659e+00 -3.044275e-01 0.000000e+00  
 1.422138e+00 -5.546198e-01 0.000000e+00  
 1.404084e+00 -4.467519e-01 0.000000e+00  
 7.726670e-01 1.065913e+00 0.000000e+00  
 7.262475e-01 9.674107e-01 0.000000e+00  
 7.644058e-01 8.858016e-01 0.000000e+00  
 8.388843e-01 8.614637e-01 0.000000e+00  
 8.799695e-01 7.310213e-01 0.000000e+00  
 7.706825e-01 6.432992e-01 0.000000e+00  
 1.003662e+00 -1.134680e-03 0.000000e+00  
 2.287344e+00 -1.809875e+00 0.000000e+00  
 2.386349e+00 -1.864245e+00 0.000000e+00  
 2.589216e+00 -2.000000e+00 0.000000e+00  
 2.464071e+00 -1.817003e+00 0.000000e+00  
 2.582944e+00 -1.883777e+00 0.000000e+00  
 2.285794e+00 -1.683494e+00 0.000000e+00  
 2.208385e+00 -1.643344e+00 0.000000e+00  
[...]
 POINT_DATA 1194 
 VECTORS Displacement float 
 0.000000e+00 8.373247e-04 0.000000e+00  
 0.000000e+00 8.236276e-04 0.000000e+00  
 0.000000e+00 8.054144e-04 0.000000e+00  
 5.911413e-05 8.080550e-04 0.000000e+00  
 7.408797e-05 8.041138e-04 0.000000e+00  
 5.407493e-05 8.166840e-04 0.000000e+00  
 0.000000e+00 7.882165e-04 0.000000e+00  
 7.604692e-05 7.915216e-04 0.000000e+00  
 7.506847e-05 7.779753e-04 0.000000e+00  
 0.000000e+00 7.718405e-04 0.000000e+00  
 1.169849e-04 7.562871e-04 0.000000e+00  
 1.490283e-04 7.540212e-04 0.000000e+00  
 1.346448e-04 7.633850e-04 0.000000e+00  
 1.238879e-04 7.684467e-04 0.000000e+00  
 1.504743e-04 7.435209e-04 0.000000e+00  
 1.067953e-04 7.653251e-04 0.000000e+00  
 9.636664e-05 7.585976e-04 0.000000e+00  
 1.561942e-04 7.438363e-04 0.000000e+00  
 1.683604e-04 7.394346e-04 0.000000e+00  
 0.000000e+00 7.486159e-04 0.000000e+00  
 0.000000e+00 7.027030e-04 0.000000e+00  
 1.387365e-04 7.429530e-04 0.000000e+00  
 1.363648e-04 7.326764e-04 0.000000e+00  
 2.206029e-04 6.871303e-04 0.000000e+00  
 2.423354e-04 6.550028e-04 0.000000e+00  
 1.961476e-04 6.693726e-04 0.000000e+00  
 2.456555e-04 6.764604e-04 0.000000e+00  
 2.321368e-04 6.957882e-04 0.000000e+00  
 2.217507e-04 6.997033e-04 0.000000e+00  
 2.195356e-04 7.081288e-04 0.000000e+00  
 2.174416e-04 7.098538e-04 0.000000e+00  
 2.664150e-04 6.712781e-04 0.000000e+00  
 2.660701e-04 6.765746e-04 0.000000e+00  
 1.996993e-04 7.130667e-04 0.000000e+00  
 2.377299e-04 6.850472e-04 0.000000e+00  
 2.895149e-04 6.755339e-04 0.000000e+00  
 3.109471e-04 6.709980e-04 0.000000e+00  
 3.101508e-04 6.226665e-04 0.000000e+00  
 3.413046e-04 5.839848e-04 0.000000e+00  
 3.151009e-04 5.961258e-04 0.000000e+00  
 3.401391e-04 5.577854e-04 0.000000e+00  
 2.875822e-04 5.759046e-04 0.000000e+00  
 3.454273e-04 6.007129e-04 0.000000e+00  
 3.264341e-04 6.217672e-04 0.000000e+00  
 3.705698e-04 6.160116e-04 0.000000e+00  
 3.518066e-04 6.208575e-04 0.000000e+00  
 3.927678e-04 5.798321e-04 0.000000e+00  
 3.980339e-04 6.377689e-04 0.000000e+00  
 4.779550e-04 6.328444e-04 0.000000e+00  
 4.488535e-04 5.715540e-04 0.000000e+00  
 4.859339e-04 5.763213e-04 0.000000e+00  
 3.922071e-04 4.830659e-04 0.000000e+00  
 4.157582e-04 5.404918e-04 0.000000e+00  
 4.195368e-04 5.203421e-04 0.000000e+00  
 4.412653e-04 5.089002e-04 0.000000e+00  
 4.485630e-04 4.835936e-04 0.000000e+00  
 4.194064e-04 4.966250e-04 0.000000e+00  
 4.462769e-04 4.624165e-04 0.000000e+00  
 4.447330e-04 5.371055e-04 0.000000e+00  
 4.634156e-04 5.103326e-04 0.000000e+00  
 5.111396e-04 4.971647e-04 0.000000e+00  
 5.199606e-04 5.079863e-04 0.000000e+00  
 5.900180e-04 5.346174e-04 0.000000e+00  
 6.871517e-04 5.600640e-04 0.000000e+00  
 5.028973e-04 4.004970e-04 0.000000e+00  
 6.269754e-04 4.522964e-04 0.000000e+00  
 6.569022e-04 4.678465e-04 0.000000e+00  
 5.259540e-04 4.055057e-04 0.000000e+00  
 5.572282e-04 3.762577e-04 0.000000e+00  
 5.549741e-04 4.325796e-04 0.000000e+00  
 5.275561e-04 4.402722e-04 0.000000e+00  
 5.609927e-04 4.070856e-04 0.000000e+00  
 5.325311e-04 4.190641e-04 0.000000e+00  
 5.628761e-04 3.887823e-04 0.000000e+00  
 5.734620e-04 4.196399e-04 0.000000e+00  
 5.922750e-04 4.252778e-04 0.000000e+00  
 6.616427e-04 3.822638e-04 0.000000e+00  
 6.856375e-04 3.915682e-04 0.000000e+00  
 7.772974e-04 4.230480e-04 0.000000e+00  
 8.695501e-04 4.753589e-04 0.000000e+00  
 0.000000e+00 -7.464467e-04 0.000000e+00  
 0.000000e+00 -7.044724e-04 0.000000e+00  
 0.000000e+00 -7.704006e-04 0.000000e+00  
 0.000000e+00 -7.878383e-04 0.000000e+00  
 0.000000e+00 -8.043749e-04 0.000000e+00  
 6.176226e-04 3.300379e-04 0.000000e+00  
 6.270332e-04 3.313717e-04 0.000000e+00  
 6.637097e-04 3.058323e-04 0.000000e+00  
 7.374731e-04 2.710655e-04 0.000000e+00  
 7.968252e-04 3.315293e-04 0.000000e+00  
 8.345337e-04 3.529382e-04 0.000000e+00  
 6.388573e-04 3.350621e-04 0.000000e+00  
 6.695714e-04 3.089079e-04 0.000000e+00  
 6.452950e-04 3.450994e-04 0.000000e+00  
 6.444170e-04 3.622056e-04 0.000000e+00  
 6.598441e-04 3.371724e-04 0.000000e+00  
 6.718037e-04 3.175505e-04 0.000000e+00  
 7.271870e-04 3.237237e-04 0.000000e+00  
 7.108999e-04 3.209356e-04 0.000000e+00  
 8.391175e-04 2.849662e-04 0.000000e+00  
 7.934328e-04 2.849458e-04 0.000000e+00  
 9.482404e-04 3.088238e-04 0.000000e+00  
 1.020930e-03 3.871422e-04 0.000000e+00  
 2.597104e-04 -6.828054e-04 0.000000e+00  
 0.000000e+00 -8.246866e-04 0.000000e+00  
 0.000000e+00 -8.397072e-04 0.000000e+00  
 2.023630e-04 -7.163589e-04 0.000000e+00  
 1.278276e-04 -7.511079e-04 0.000000e+00  
 1.599380e-04 -7.280812e-04 0.000000e+00  
 1.351691e-04 -7.488021e-04 0.000000e+00  
 9.839090e-05 -7.711856e-04 0.000000e+00  
 1.129862e-04 -7.684491e-04 0.000000e+00  
 8.028890e-05 -7.904946e-04 0.000000e+00  
 8.784571e-05 -7.897179e-04 0.000000e+00  
 6.039327e-05 -8.091690e-04 0.000000e+00  
 7.335419e-04 2.668745e-04 0.000000e+00  
 7.738902e-04 2.481826e-04 0.000000e+00  
 7.331780e-04 2.691947e-04 0.000000e+00  
 7.682340e-04 2.475996e-04 0.000000e+00  
 8.408030e-04 2.159202e-04 0.000000e+00  
 8.842633e-04 2.048284e-04 0.000000e+00  
 8.609337e-04 2.241116e-04 0.000000e+00  
 9.115133e-04 2.419496e-04 0.000000e+00  
 9.835174e-04 2.304170e-04 0.000000e+00  
 9.921137e-04 2.576693e-04 0.000000e+00  
 7.629073e-04 2.571056e-04 0.000000e+00  
 7.851607e-04 2.409163e-04 0.000000e+00  
 7.915053e-04 2.435748e-04 0.000000e+00  
 7.843603e-04 2.616266e-04 0.000000e+00  
 7.542711e-04 2.733864e-04 0.000000e+00  
 8.653318e-04 2.261648e-04 0.000000e+00  
 8.252098e-04 2.371270e-04 0.000000e+00  
 9.063482e-04 2.035530e-04 0.000000e+00  
 9.493753e-04 1.967127e-04 0.000000e+00  
 1.115692e-03 2.217545e-04 0.000000e+00  
 1.155910e-03 2.888330e-04 0.000000e+00  
 1.144702e-03 1.750104e-04 0.000000e+00  
 3.092989e-04 -6.719407e-04 0.000000e+00  
 4.206612e-04 -6.294881e-04 0.000000e+00  
 4.984499e-04 -6.288837e-04 0.000000e+00  
 9.780291e-04 1.913922e-04 0.000000e+00  
 7.612573e-05 -8.053557e-04 0.000000e+00  
 5.662224e-05 -8.174322e-04 0.000000e+00  
 2.973119e-04 -6.712071e-04 0.000000e+00  
 2.263969e-04 -7.077462e-04 0.000000e+00  
 2.348682e-04 -7.003041e-04 0.000000e+00  
 1.849012e-04 -7.314747e-04 0.000000e+00  
 1.956478e-04 -7.246680e-04 0.000000e+00  
 1.569607e-04 -7.515955e-04 0.000000e+00  
 1.494402e-04 -7.550121e-04 0.000000e+00  
 3.831535e-04 -6.082274e-04 0.000000e+00  
 8.389909e-04 2.095268e-04 0.000000e+00  
 8.688513e-04 1.992928e-04 0.000000e+00  
 8.332021e-04 2.131159e-04 0.000000e+00  
 8.608928e-04 1.981989e-04 0.000000e+00  
 9.256753e-04 1.740590e-04 0.000000e+00  
 9.693941e-04 1.633990e-04 0.000000e+00  
 9.560567e-04 1.746241e-04 0.000000e+00  
 9.977933e-04 1.696616e-04 0.000000e+00  
 8.925429e-04 1.812766e-04 0.000000e+00  
 1.037253e-03 1.487120e-04 0.000000e+00  
 1.109232e-03 1.456191e-04 0.000000e+00  
 1.071030e-03 1.591873e-04 0.000000e+00  
 8.686441e-04 1.980298e-04 0.000000e+00  
 9.054626e-04 1.756018e-04 0.000000e+00  
 8.933686e-04 1.899801e-04 0.000000e+00  
 1.053294e-03 1.349967e-04 0.000000e+00  
 9.705896e-04 1.581713e-04 0.000000e+00  
 9.457209e-04 1.623957e-04 0.000000e+00  
 1.022227e-03 1.332885e-04 0.000000e+00  
 1.253388e-03 1.898800e-04 0.000000e+00  
 1.228147e-03 1.257212e-04 0.000000e+00  
 1.238689e-03 1.240992e-04 0.000000e+00  
 1.168721e-03 1.023133e-04 0.000000e+00  
 1.222466e-03 8.670805e-05 0.000000e+00  
 4.829672e-04 -5.562642e-04 0.000000e+00  
 5.086727e-04 -5.605355e-04 0.000000e+00  
 6.204657e-04 -5.175330e-04 0.000000e+00  
 7.234879e-04 -5.468487e-04 0.000000e+00  
 8.967424e-04 -4.636120e-04 0.000000e+00  
 1.085088e-03 1.701201e-04 0.000000e+00  
 1.186437e-03 1.569509e-04 0.000000e+00  
 1.060723e-03 1.483938e-04 0.000000e+00  
 1.100821e-03 1.491861e-04 0.000000e+00  
 1.671323e-04 -7.379351e-04 0.000000e+00  
 1.234899e-04 -7.523522e-04 0.000000e+00  
 3.766822e-04 -6.031773e-04 0.000000e+00  
 3.055292e-04 -6.483873e-04 0.000000e+00  
 2.531606e-04 -6.793584e-04 0.000000e+00  
 3.111723e-04 -6.388348e-04 0.000000e+00  
 2.664910e-04 -6.631169e-04 0.000000e+00  
 2.330748e-04 -6.829049e-04 0.000000e+00  
 5.569426e-04 -4.811747e-04 0.000000e+00  
 5.293112e-04 -4.834045e-04 0.000000e+00  
 4.502693e-04 -5.374097e-04 0.000000e+00  
 1.313854e-03 9.521974e-05 0.000000e+00  
 9.636644e-04 1.466490e-04 0.000000e+00  
 9.382650e-04 1.608906e-04 0.000000e+00  
 9.636539e-04 1.525961e-04 0.000000e+00  
 1.041712e-03 1.343486e-04 0.000000e+00  
 1.009781e-03 1.347135e-04 0.000000e+00  
 1.076972e-03 1.352059e-04 0.000000e+00  
 9.683313e-04 1.438358e-04 0.000000e+00  
 1.000129e-03 1.299388e-04 0.000000e+00  
 1.017862e-03 1.208645e-04 0.000000e+00  
 1.166073e-03 8.492373e-05 0.000000e+00  
 1.131416e-03 9.432572e-05 0.000000e+00  
 1.009657e-03 1.258716e-04 0.000000e+00  
 1.137756e-03 8.079095e-05 0.000000e+00  
 1.076463e-03 9.943000e-05 0.000000e+00  
 1.074219e-03 1.037367e-04 0.000000e+00  
 1.297888e-03 7.055278e-05 0.000000e+00  
 1.319236e-03 6.185010e-05 0.000000e+00  
 1.260375e-03 6.087119e-05 0.000000e+00  
 1.300145e-03 4.825988e-05 0.000000e+00  
 1.221801e-03 5.706499e-05 0.000000e+00  
 1.263861e-03 4.588255e-05 0.000000e+00  
 6.560586e-04 -4.234133e-04 0.000000e+00  
 7.060645e-04 -4.308856e-04 0.000000e+00  
 7.954457e-04 -3.916950e-04 0.000000e+00  
 8.510428e-04 -3.423100e-04 0.000000e+00  
 9.799110e-04 -2.962088e-04 0.000000e+00  
 1.046784e-03 -3.733456e-04 0.000000e+00  
 1.334130e-03 -1.414336e-06 0.000000e+00  
 1.156374e-03 1.341993e-04 0.000000e+00  
 1.198077e-03 1.369320e-04 0.000000e+00  
 1.287518e-03 1.495837e-04 0.000000e+00  
 1.239562e-03 1.273918e-04 0.000000e+00  
 1.289328e-03 1.336147e-04 0.000000e+00  
 1.173778e-03 1.162748e-04 0.000000e+00  
 1.145017e-03 1.154343e-04 0.000000e+00  
 1.375196e-03 1.473332e-04 0.000000e+00  
 1.456990e-03 1.478939e-04 0.000000e+00  
 1.528271e-03 1.501113e-04 0.000000e+00  
 2.523079e-04 -6.524380e-04 0.000000e+00  
 1.966339e-04 -6.728132e-04 0.000000e+00  
 4.300301e-04 -5.386008e-04 0.000000e+00  
 3.924135e-04 -5.672473e-04 0.000000e+00  
 3.614891e-04 -5.800873e-04 0.000000e+00  
 3.703740e-04 -5.688976e-04 0.000000e+00  
 3.317289e-04 -5.853431e-04 0.000000e+00  
 4.932223e-04 -4.813826e-04 0.000000e+00  
 7.177859e-04 -3.565204e-04 0.000000e+00  
 6.836358e-04 -3.599283e-04 0.000000e+00  
 5.924434e-04 -4.194917e-04 0.000000e+00  
 5.780550e-04 -4.220023e-04 0.000000e+00  
 1.342133e-03 2.235900e-05 0.000000e+00  
 1.347064e-03 4.021962e-07 0.000000e+00  
 1.058094e-03 1.093321e-04 0.000000e+00  
 1.055510e-03 1.140808e-04 0.000000e+00  
 1.157865e-03 1.005267e-04 0.000000e+00  
 1.111155e-03 9.970933e-05 0.000000e+00  
 1.107569e-03 1.086259e-04 0.000000e+00  
 1.075112e-03 9.642395e-05 0.000000e+00  
 1.084000e-03 9.201739e-05 0.000000e+00  
 1.117520e-03 8.173892e-05 0.000000e+00  
 1.109280e-03 8.860003e-05 0.000000e+00  
 1.181363e-03 6.056879e-05 0.000000e+00  
 1.228972e-03 4.555899e-05 0.000000e+00  
 1.184725e-03 5.550461e-05 0.000000e+00  
 1.132452e-03 7.290805e-05 0.000000e+00  
 1.132145e-03 7.413242e-05 0.000000e+00  
 1.345959e-03 1.592937e-05 0.000000e+00  
 1.323344e-03 3.012281e-05 0.000000e+00  
 1.328234e-03 2.097701e-05 0.000000e+00  
 1.293346e-03 3.160982e-05 0.000000e+00  
 1.257427e-03 3.493934e-05 0.000000e+00  
 1.302055e-03 2.329353e-05 0.000000e+00  
 1.182630e-03 9.272740e-05 0.000000e+00  
 8.239252e-04 -2.938880e-04 0.000000e+00  
 8.416732e-04 -2.900088e-04 0.000000e+00  
 9.800641e-04 -2.124326e-04 0.000000e+00  
 1.017432e-03 -2.462567e-04 0.000000e+00  
 1.121242e-03 -1.963525e-04 0.000000e+00  
 1.179058e-03 -2.729708e-04 0.000000e+00  
 1.257944e-03 -1.862617e-04 0.000000e+00  
 1.315654e-03 -9.124985e-05 0.000000e+00  
 1.344204e-03 -2.106163e-05 0.000000e+00  
 1.323713e-03 -5.548715e-05 0.000000e+00  
 1.220591e-03 1.066147e-04 0.000000e+00  
 1.257912e-03 1.122832e-04 0.000000e+00  
 1.380284e-03 1.291261e-04 0.000000e+00  
 1.345899e-03 1.195339e-04 0.000000e+00  
 1.298185e-03 1.056310e-04 0.000000e+00  
 1.249878e-03 8.972947e-05 0.000000e+00  
 1.239057e-03 8.577894e-05 0.000000e+00  
 1.437578e-03 1.236093e-04 0.000000e+00  
 1.458863e-03 1.309278e-04 0.000000e+00  
 1.597031e-03 1.532924e-04 0.000000e+00  
 1.522277e-03 1.283844e-04 0.000000e+00  
 1.530129e-03 1.318175e-04 0.000000e+00  
 1.590729e-03 1.354317e-04 0.000000e+00  
 1.656650e-03 1.564053e-04 0.000000e+00  
 1.719377e-03 1.598889e-04 0.000000e+00  
 1.780661e-03 1.632133e-04 0.000000e+00  
 3.520864e-04 -5.561009e-04 0.000000e+00  
 2.870502e-04 -5.803458e-04 0.000000e+00  
 4.179516e-04 -5.018943e-04 0.000000e+00  
 4.709587e-04 -4.807886e-04 0.000000e+00  
 4.996786e-04 -4.630572e-04 0.000000e+00  
 4.754626e-04 -4.689599e-04 0.000000e+00  
 6.383826e-04 -3.635640e-04 0.000000e+00  
 5.999119e-04 -3.838392e-04 0.000000e+00  
 8.563129e-04 -2.434858e-04 0.000000e+00  
 8.160264e-04 -2.570834e-04 0.000000e+00  
 7.448445e-04 -3.021845e-04 0.000000e+00  
 7.029836e-04 -3.181098e-04 0.000000e+00  
 1.350949e-03 -1.358363e-05 0.000000e+00  
 1.353391e-03 4.886574e-06 0.000000e+00  
 1.164743e-03 7.466817e-05 0.000000e+00  
 1.160462e-03 8.166886e-05 0.000000e+00  
 1.198967e-03 7.650113e-05 0.000000e+00  
 1.178586e-03 5.689535e-05 0.000000e+00  
 1.159599e-03 6.654932e-05 0.000000e+00  
 1.191319e-03 5.260613e-05 0.000000e+00  
 1.203865e-03 6.098949e-05 0.000000e+00  
 1.204666e-03 5.524632e-05 0.000000e+00  
 1.231095e-03 3.900142e-05 0.000000e+00  
 1.272232e-03 2.804459e-05 0.000000e+00  
 1.232797e-03 3.872900e-05 0.000000e+00  
 1.358676e-03 3.437375e-06 0.000000e+00  
 1.342982e-03 1.324493e-05 0.000000e+00  
 1.350131e-03 8.958271e-06 0.000000e+00  
 1.322929e-03 1.632455e-05 0.000000e+00  
 1.306164e-03 1.868703e-05 0.000000e+00  
 1.333144e-03 1.244551e-05 0.000000e+00  
 1.275339e-03 6.879152e-05 0.000000e+00  
 1.238263e-03 6.654776e-05 0.000000e+00  
 9.594120e-04 -1.824808e-04 0.000000e+00  
 9.976941e-04 -1.933036e-04 0.000000e+00  
 1.087647e-03 -1.439120e-04 0.000000e+00  
 1.149238e-03 -1.560731e-04 0.000000e+00  
 1.195980e-03 -1.278327e-04 0.000000e+00  
 1.301783e-03 -6.551419e-05 0.000000e+00  
 1.250375e-03 -1.225324e-04 0.000000e+00  
 1.300310e-03 -5.506121e-05 0.000000e+00  
 1.345413e-03 -1.787542e-05 0.000000e+00  
 1.330372e-03 -2.763922e-05 0.000000e+00  
 1.303273e-03 8.506713e-05 0.000000e+00  
 1.316968e-03 9.662594e-05 0.000000e+00  
 1.328702e-03 7.654281e-05 0.000000e+00  
 1.421904e-03 1.040820e-04 0.000000e+00  
 1.389908e-03 1.037059e-04 0.000000e+00  
 1.444661e-03 1.128659e-04 0.000000e+00  
 1.369534e-03 9.293280e-05 0.000000e+00  
 1.307553e-03 6.353372e-05 0.000000e+00  
 1.330853e-03 6.615709e-05 0.000000e+00  
 1.525078e-03 1.176391e-04 0.000000e+00  
 1.495679e-03 1.091782e-04 0.000000e+00  
 1.607157e-03 1.310843e-04 0.000000e+00  
 1.655990e-03 1.392096e-04 0.000000e+00  
 1.605350e-03 1.229805e-04 0.000000e+00  
 1.565540e-03 1.127734e-04 0.000000e+00  
 1.680424e-03 1.359571e-04 0.000000e+00  
 1.717998e-03 1.432312e-04 0.000000e+00  
 1.747419e-03 1.401796e-04 0.000000e+00  
 1.779553e-03 1.478060e-04 0.000000e+00  
 1.840002e-03 1.661340e-04 0.000000e+00  
 1.894802e-03 1.684024e-04 0.000000e+00  
 1.817460e-03 1.445990e-04 0.000000e+00  
 1.839204e-03 1.508378e-04 0.000000e+00  
 1.950652e-03 1.701544e-04 0.000000e+00  
 2.004695e-03 1.711570e-04 0.000000e+00  
 2.059259e-03 1.714539e-04 0.000000e+00  
 4.438549e-04 -4.671728e-04 0.000000e+00  
 3.929660e-04 -4.862351e-04 0.000000e+00  
 5.541339e-04 -4.010210e-04 0.000000e+00  
 5.361649e-04 -4.024086e-04 0.000000e+00  
 6.307740e-04 -3.503300e-04 0.000000e+00  
 7.510908e-04 -2.782420e-04 0.000000e+00  
 7.354079e-04 -2.828522e-04 0.000000e+00  
 9.774693e-04 -1.683435e-04 0.000000e+00  
 9.536767e-04 -1.653408e-04 0.000000e+00  
 8.684892e-04 -2.117429e-04 0.000000e+00  
 8.458511e-04 -2.202522e-04 0.000000e+00  
 1.363418e-03 -6.935368e-07 0.000000e+00  
 1.358430e-03 -8.569637e-06 0.000000e+00  
 1.251360e-03 5.238246e-05 0.000000e+00  
 1.262018e-03 5.514192e-05 0.000000e+00  
 1.244681e-03 4.271694e-05 0.000000e+00  
 1.246953e-03 3.819325e-05 0.000000e+00  
 1.278357e-03 2.689394e-05 0.000000e+00  
 1.272275e-03 3.084945e-05 0.000000e+00  
 1.291158e-03 3.842131e-05 0.000000e+00  
 1.283633e-03 3.605433e-05 0.000000e+00  
 1.322016e-03 1.544454e-05 0.000000e+00  
 1.309413e-03 1.905560e-05 0.000000e+00  
 1.363562e-03 4.777931e-06 0.000000e+00  
 1.371409e-03 -1.683431e-07 0.000000e+00  
 1.357997e-03 6.957225e-06 0.000000e+00  
 1.372189e-03 3.341697e-06 0.000000e+00  
 1.356367e-03 8.726548e-06 0.000000e+00  
 1.368824e-03 5.626311e-06 0.000000e+00  
 1.331180e-03 5.051042e-05 0.000000e+00  
 1.317887e-03 4.697901e-05 0.000000e+00  
 1.073469e-03 -1.179583e-04 0.000000e+00  
 1.114829e-03 -1.170743e-04 0.000000e+00  
 1.173409e-03 -8.895638e-05 0.000000e+00  
 1.223492e-03 -8.188867e-05 0.000000e+00  
 1.254627e-03 -6.559311e-05 0.000000e+00  
 1.092877e-03 -1.045250e-04 0.000000e+00  
 1.278411e-03 -4.259443e-05 0.000000e+00  
 1.316094e-03 -2.778291e-05 0.000000e+00  
 1.355599e-03 -1.049415e-05 0.000000e+00  
 1.333686e-03 -1.858768e-05 0.000000e+00  
 1.392343e-03 8.238161e-05 0.000000e+00  
 1.385993e-03 7.635150e-05 0.000000e+00  
 1.408786e-03 6.630913e-05 0.000000e+00  
 1.387592e-03 5.739811e-05 0.000000e+00  
 1.448728e-03 8.400991e-05 0.000000e+00  
 1.504101e-03 9.499512e-05 0.000000e+00  
 1.455437e-03 8.952670e-05 0.000000e+00  
 1.382322e-03 4.575546e-05 0.000000e+00  
 1.397407e-03 5.179196e-05 0.000000e+00  
 1.519907e-03 9.276517e-05 0.000000e+00  
 1.571645e-03 1.014579e-04 0.000000e+00  
 1.589022e-03 9.888802e-05 0.000000e+00  
 1.681617e-03 1.226111e-04 0.000000e+00  
 1.644904e-03 1.145614e-04 0.000000e+00  
 1.641490e-03 1.078256e-04 0.000000e+00  
 1.713390e-03 1.194835e-04 0.000000e+00  
 1.750620e-03 1.291914e-04 0.000000e+00  
 1.818842e-03 1.353277e-04 0.000000e+00  
 1.783542e-03 1.257561e-04 0.000000e+00  
 1.887609e-03 1.491281e-04 0.000000e+00  
 1.947515e-03 1.542713e-04 0.000000e+00  
 1.895889e-03 1.521095e-04 0.000000e+00  
 1.888781e-03 1.395765e-04 0.000000e+00  
 1.854075e-03 1.305468e-04 0.000000e+00  
 1.957932e-03 1.514259e-04 0.000000e+00  
 2.003812e-03 1.561033e-04 0.000000e+00  
 2.022810e-03 1.519555e-04 0.000000e+00  
 2.063565e-03 1.565875e-04 0.000000e+00  
 2.076221e-03 1.542118e-04 0.000000e+00  
 2.122572e-03 1.597659e-04 0.000000e+00  
 2.124502e-03 1.710233e-04 0.000000e+00  
 2.185289e-03 1.702102e-04 0.000000e+00  
 5.659375e-04 -3.770203e-04 0.000000e+00  
 5.054380e-04 -4.028572e-04 0.000000e+00  
 6.780173e-04 -3.092293e-04 0.000000e+00  
 6.242101e-04 -3.385296e-04 0.000000e+00  
 7.348622e-04 -2.731031e-04 0.000000e+00  
 7.900245e-04 -2.432953e-04 0.000000e+00  
 8.867874e-04 -1.909849e-04 0.000000e+00  
 8.209922e-04 -2.247818e-04 0.000000e+00  
 9.916223e-04 -1.424350e-04 0.000000e+00  
 1.073031e-03 -1.055977e-04 0.000000e+00  
 9.306346e-04 -1.666311e-04 0.000000e+00  
 9.899477e-04 -1.385700e-04 0.000000e+00  
 1.377833e-03 -2.359300e-06 0.000000e+00  
 1.369400e-03 -6.521403e-06 0.000000e+00  
 1.342467e-03 3.667129e-05 0.000000e+00  
 1.333616e-03 3.347791e-05 0.000000e+00  
 1.325560e-03 2.377299e-05 0.000000e+00  
 1.317835e-03 2.250698e-05 0.000000e+00  
 1.345403e-03 1.465218e-05 0.000000e+00  
 1.353653e-03 2.083409e-05 0.000000e+00  
 1.363715e-03 2.431457e-05 0.000000e+00  
 1.357709e-03 1.256771e-05 0.000000e+00  
 1.375601e-03 7.422248e-06 0.000000e+00  
 1.387800e-03 6.490746e-07 0.000000e+00  
 1.388861e-03 -1.681295e-06 0.000000e+00  
 1.399002e-03 4.133888e-07 0.000000e+00  
 1.392965e-03 2.286958e-06 0.000000e+00  
 1.406400e-03 2.148429e-06 0.000000e+00  
 1.395764e-03 4.928497e-06 0.000000e+00  
 1.401601e-03 3.746326e-05 0.000000e+00  
 1.391433e-03 3.285509e-05 0.000000e+00  
 1.181931e-03 -6.560630e-05 0.000000e+00  
 1.204406e-03 -6.337094e-05 0.000000e+00  
 1.259382e-03 -4.349557e-05 0.000000e+00  