# vtk DataFile Version 1.0 
PolyMesh 
ASCII 
 
DATASET POLYDATA 
 
POINTS 2390 float 
3.675810e-11 2.000000e+00 0.000000e+00  
 3.675810e-11 1.873418e+00 0.000000e+00  
 9.805573e-02 1.863414e+00 0.000000e+00  
 1.476114e-01 1.915719e+00 0.000000e+00  
 1.415495e-01 2.000000e+00 0.000000e+00  
 -9.322700e-12 1.726982e+00 0.000000e+00  
 -1.028330e-11 1.588688e+00 0.000000e+00  
 -1.028330e-11 1.462645e+00 0.000000e+00  
 1.293531e-01 1.775624e+00 0.000000e+00  
 8.696600e-02 1.726952e+00 0.000000e+00  
 1.975105e-01 1.769766e+00 0.000000e+00  
 2.450881e-01 1.818081e+00 0.000000e+00  
 2.420991e-01 1.872967e+00 0.000000e+00  
 2.965351e-01 1.923450e+00 0.000000e+00  
 2.971324e-01 2.000000e+00 0.000000e+00  
 1.294354e-01 1.635814e+00 0.000000e+00  
 1.023264e-01 1.593227e+00 0.000000e+00  
 4.425913e-01 2.000000e+00 0.000000e+00  
 1.381860e-01 1.511111e+00 0.000000e+00  
 1.085384e-01 1.463995e+00 0.000000e+00  
 1.407622e-01 1.381479e+00 0.000000e+00  
 1.121623e-01 1.340664e+00 0.000000e+00  
 3.312900e-11 1.339479e+00 0.000000e+00  
 -9.964100e-12 1.224873e+00 0.000000e+00  
 2.175615e-01 1.648381e+00 0.000000e+00  
 2.331552e-01 1.675897e+00 0.000000e+00  
 3.209505e-01 1.697262e+00 0.000000e+00  
 3.381261e-01 1.774276e+00 0.000000e+00  
 3.754614e-01 1.796187e+00 0.000000e+00  
 3.873076e-01 1.871397e+00 0.000000e+00  
 4.377016e-01 1.903571e+00 0.000000e+00  
 2.548589e-01 1.564538e+00 0.000000e+00  
 2.283046e-01 1.514996e+00 0.000000e+00  
 5.734370e-01 2.000000e+00 0.000000e+00  
 5.176743e-01 1.862155e+00 0.000000e+00  
 5.695819e-01 1.889409e+00 0.000000e+00  
 2.621166e-01 1.446559e+00 0.000000e+00  
 2.276429e-01 1.381776e+00 0.000000e+00  
 2.631733e-01 1.319006e+00 0.000000e+00  
 2.235978e-01 1.244795e+00 0.000000e+00  
 1.401703e-01 1.244544e+00 0.000000e+00  
 1.189084e-01 1.219947e+00 0.000000e+00  
 1.265646e-01 1.117335e+00 0.000000e+00  
 -9.964100e-12 1.100824e+00 0.000000e+00  
 3.892810e-11 1.002459e+00 0.000000e+00  
 3.507478e-01 1.574017e+00 0.000000e+00  
 3.721418e-01 1.642975e+00 0.000000e+00  
 4.426782e-01 1.663204e+00 0.000000e+00  
 4.633816e-01 1.748227e+00 0.000000e+00  
 5.059647e-01 1.768641e+00 0.000000e+00  
 3.847210e-01 1.522791e+00 0.000000e+00  
 3.564323e-01 1.445920e+00 0.000000e+00  
 6.974470e-01 2.000000e+00 0.000000e+00  
 6.408510e-01 1.855540e+00 0.000000e+00  
 6.964940e-01 1.883723e+00 0.000000e+00  
 5.802050e-01 1.731560e+00 0.000000e+00  
 6.360539e-01 1.757921e+00 0.000000e+00  
 8.202827e-01 2.000000e+00 0.000000e+00  
 9.423683e-01 2.000000e+00 0.000000e+00  
 3.851945e-01 1.399204e+00 0.000000e+00  
 3.485483e-01 1.316649e+00 0.000000e+00  
 3.815082e-01 1.264858e+00 0.000000e+00  
 2.656054e-01 1.181385e+00 0.000000e+00  
 3.495904e-01 1.190941e+00 0.000000e+00  
 2.386636e-01 1.114943e+00 0.000000e+00  
 1.481113e-01 1.097321e+00 0.000000e+00  
 1.374640e-01 9.928132e-01 0.000000e+00  
 1.062161e+00 2.000000e+00 0.000000e+00  
 1.181124e+00 2.000000e+00 0.000000e+00  
 5.064495e-01 1.607431e+00 0.000000e+00  
 4.824159e-01 1.528205e+00 0.000000e+00  
 5.718154e-01 1.629243e+00 0.000000e+00  
 5.152112e-01 1.479505e+00 0.000000e+00  
 4.732965e-01 1.393682e+00 0.000000e+00  
 7.640808e-01 1.853876e+00 0.000000e+00  
 8.203374e-01 1.883421e+00 0.000000e+00  
 6.268271e-01 1.597078e+00 0.000000e+00  
 7.643658e-01 1.755465e+00 0.000000e+00  
 7.048139e-01 1.723100e+00 0.000000e+00  
 7.037119e-01 1.640547e+00 0.000000e+00  
 8.897729e-01 1.854184e+00 0.000000e+00  
 9.422692e-01 1.882017e+00 0.000000e+00  
 1.012741e+00 1.854330e+00 0.000000e+00  
 1.063609e+00 1.884068e+00 0.000000e+00  
 4.686037e-01 1.264716e+00 0.000000e+00  
 5.052798e-01 1.340180e+00 0.000000e+00  
 5.029176e-01 1.208076e+00 0.000000e+00  
 3.985582e-01 1.123316e+00 0.000000e+00  
 4.699172e-01 1.138098e+00 0.000000e+00  
 3.758358e-01 1.068343e+00 0.000000e+00  
 2.910581e-01 1.046283e+00 0.000000e+00  
 2.649916e-01 9.669314e-01 0.000000e+00  
 1.137740e+00 1.857679e+00 0.000000e+00  
 1.183913e+00 1.887907e+00 0.000000e+00  
 1.298560e+00 2.000000e+00 0.000000e+00  
 1.261134e+00 1.863742e+00 0.000000e+00  
 1.305734e+00 1.901853e+00 0.000000e+00  
 5.969109e-01 1.473575e+00 0.000000e+00  
 6.361563e-01 1.519414e+00 0.000000e+00  
 6.283515e-01 1.386336e+00 0.000000e+00  
 5.927304e-01 1.337092e+00 0.000000e+00  
 8.886258e-01 1.752139e+00 0.000000e+00  
 8.344636e-01 1.724521e+00 0.000000e+00  
 8.305135e-01 1.617499e+00 0.000000e+00  
 7.510219e-01 1.493148e+00 0.000000e+00  
 7.763623e-01 1.595826e+00 0.000000e+00  
 9.582570e-01 1.721947e+00 0.000000e+00  
 1.015783e+00 1.757457e+00 0.000000e+00  
 1.142595e+00 1.762939e+00 0.000000e+00  
 1.091495e+00 1.727760e+00 0.000000e+00  
 6.242901e-01 1.253767e+00 0.000000e+00  
 5.865265e-01 1.207013e+00 0.000000e+00  
 6.194729e-01 1.109930e+00 0.000000e+00  
 5.336087e-01 1.064049e+00 0.000000e+00  
 5.230202e-01 1.018412e+00 0.000000e+00  
 4.295380e-01 9.898596e-01 0.000000e+00  
 4.027588e-01 9.178130e-01 0.000000e+00  
 1.219822e+00 1.736778e+00 0.000000e+00  
 1.274025e+00 1.782210e+00 0.000000e+00  
 1.400659e+00 1.875770e+00 0.000000e+00  
 1.435845e+00 2.000000e+00 0.000000e+00  
 1.350856e+00 1.758024e+00 0.000000e+00  
 1.415686e+00 1.850893e+00 0.000000e+00  
 7.023913e-01 1.247001e+00 0.000000e+00  
 7.623876e-01 1.472451e+00 0.000000e+00  
 7.524383e-01 1.317691e+00 0.000000e+00  
 7.156630e-01 1.382828e+00 0.000000e+00  
 8.895980e-01 1.588942e+00 0.000000e+00  
 9.633728e-01 1.634683e+00 0.000000e+00  
 9.034942e-01 1.505271e+00 0.000000e+00  
 8.431154e-01 1.453476e+00 0.000000e+00  
 1.035788e+00 1.598539e+00 0.000000e+00  
 1.095944e+00 1.639937e+00 0.000000e+00  
 1.171139e+00 1.608726e+00 0.000000e+00  
 1.233434e+00 1.650056e+00 0.000000e+00  
 1.515887e+00 2.000000e+00 0.000000e+00  
 1.639584e+00 2.000000e+00 0.000000e+00  
 6.608774e-01 1.095493e+00 0.000000e+00  
 7.375944e-01 1.174224e+00 0.000000e+00  
 6.877150e-01 1.037828e+00 0.000000e+00  
 6.317362e-01 9.523756e-01 0.000000e+00  
 5.752849e-01 9.508446e-01 0.000000e+00  
 5.211601e-01 8.559902e-01 0.000000e+00  
 1.291510e+00 1.627514e+00 0.000000e+00  
 1.376990e+00 1.698003e+00 0.000000e+00  
 1.481283e+00 1.832693e+00 0.000000e+00  
 1.535065e+00 1.873615e+00 0.000000e+00  
 1.414595e+00 1.683632e+00 0.000000e+00  
 1.503971e+00 1.742794e+00 0.000000e+00  
 8.025817e-01 1.159067e+00 0.000000e+00  
 8.254258e-01 1.311380e+00 0.000000e+00  
 8.578538e-01 1.225687e+00 0.000000e+00  
 8.704778e-01 1.361447e+00 0.000000e+00  
 1.038405e+00 1.526772e+00 0.000000e+00  
 9.793763e-01 1.478497e+00 0.000000e+00  
 9.523681e-01 1.352891e+00 0.000000e+00  
 9.933831e-01 1.399959e+00 0.000000e+00  
 1.176198e+00 1.510686e+00 0.000000e+00  
 1.126369e+00 1.483338e+00 0.000000e+00  
 1.318571e+00 1.547659e+00 0.000000e+00  
 1.238356e+00 1.486481e+00 0.000000e+00  
 3.550030e-11 -1.204664e+00 0.000000e+00  
 3.550030e-11 -1.107651e+00 0.000000e+00  
 -1.005450e-11 -1.001630e+00 0.000000e+00  
 1.623612e+00 1.857326e+00 0.000000e+00  
 1.644505e+00 1.877097e+00 0.000000e+00  
 1.756211e+00 1.875613e+00 0.000000e+00  
 1.760209e+00 2.000000e+00 0.000000e+00  
 7.695990e-01 1.017358e+00 0.000000e+00  
 8.281979e-01 1.096716e+00 0.000000e+00  
 7.920186e-01 9.654634e-01 0.000000e+00  
 7.238622e-01 8.743773e-01 0.000000e+00  
 6.969043e-01 8.734682e-01 0.000000e+00  
 6.260732e-01 7.825266e-01 0.000000e+00  
 1.367198e+00 1.530513e+00 0.000000e+00  
 1.448994e+00 1.598337e+00 0.000000e+00  
 1.633295e+00 1.764209e+00 0.000000e+00  
 1.559493e+00 1.716777e+00 0.000000e+00  
 1.569318e+00 1.643318e+00 0.000000e+00  
 1.493855e+00 1.583817e+00 0.000000e+00  
 1.693205e+00 1.735190e+00 0.000000e+00  
 9.077763e-01 1.075314e+00 0.000000e+00  
 9.474923e-01 1.213315e+00 0.000000e+00  
 9.690946e-01 1.140171e+00 0.000000e+00  
 9.836729e-01 1.262500e+00 0.000000e+00  
 1.106914e+00 1.377191e+00 0.000000e+00  
 1.073216e+00 1.263743e+00 0.000000e+00  
 1.262631e+00 1.402004e+00 0.000000e+00  
 1.208981e+00 1.347484e+00 0.000000e+00  
 1.342078e+00 1.385583e+00 0.000000e+00  
 1.396078e+00 1.458830e+00 0.000000e+00  
 -1.004490e-11 -1.323956e+00 0.000000e+00  
 -1.004490e-11 -1.443811e+00 0.000000e+00  
 3.413590e-11 -1.556397e+00 0.000000e+00  
 3.509000e-11 -1.663983e+00 0.000000e+00  
 1.012163e-01 -1.322617e+00 0.000000e+00  
 1.318969e-01 -1.234212e+00 0.000000e+00  
 1.201115e-01 -1.214670e+00 0.000000e+00  
 1.404787e-01 -1.122219e+00 0.000000e+00  
 1.195099e-01 -1.099188e+00 0.000000e+00  
 1.220823e-01 -9.936633e-01 0.000000e+00  
 -1.006820e-11 -1.783006e+00 0.000000e+00  
 3.469460e-11 -1.898334e+00 0.000000e+00  
 3.469460e-11 -2.000000e+00 0.000000e+00  
 2.170447e-01 -9.773755e-01 0.000000e+00  
 1.768821e+00 1.773053e+00 0.000000e+00  
 1.771307e+00 1.860914e+00 0.000000e+00  
 1.877460e+00 1.882185e+00 0.000000e+00  
 1.878752e+00 2.000000e+00 0.000000e+00  
 9.296867e-01 1.001232e+00 0.000000e+00  
 8.650858e-01 9.417173e-01 0.000000e+00  
 8.006754e-01 8.046931e-01 0.000000e+00  
 8.832309e-01 8.697398e-01 0.000000e+00  
 8.014497e-01 7.690439e-01 0.000000e+00  
 7.193465e-01 6.974300e-01 0.000000e+00  
 9.954796e-01 9.793812e-01 0.000000e+00  
 1.481404e+00 1.443573e+00 0.000000e+00  
 1.523914e+00 1.508875e+00 0.000000e+00  
 1.701692e+00 1.626087e+00 0.000000e+00  
 1.643806e+00 1.602978e+00 0.000000e+00  
 1.619847e+00 1.501237e+00 0.000000e+00  
 1.830387e+00 1.729959e+00 0.000000e+00  
 1.734428e+00 1.611692e+00 0.000000e+00  
 1.825764e+00 1.655253e+00 0.000000e+00  
 1.044641e+00 1.115374e+00 0.000000e+00  
 1.062614e+00 1.027951e+00 0.000000e+00  
 1.114896e+00 1.172874e+00 0.000000e+00  
 1.118270e+00 1.208107e+00 0.000000e+00  
 1.229012e+00 1.260397e+00 0.000000e+00  
 1.256408e+00 1.243844e+00 0.000000e+00  
 1.371971e+00 1.320330e+00 0.000000e+00  
 1.347101e+00 1.267663e+00 0.000000e+00  
 1.471749e+00 1.321952e+00 0.000000e+00  
 1.506215e+00 1.385000e+00 0.000000e+00  
 1.365479e-01 -1.372383e+00 0.000000e+00  
[...]
 POINT_DATA 2390 
 VECTORS Displacement float 
 0.000000e+00 -5.081309e-05 0.000000e+00  
 0.000000e+00 -5.047683e-05 0.000000e+00  
 1.055097e-06 -5.027850e-05 0.000000e+00  
 1.425362e-06 -5.025389e-05 0.000000e+00  
 1.058385e-06 -5.052523e-05 0.000000e+00  
 0.000000e+00 -5.002255e-05 0.000000e+00  
 0.000000e+00 -4.960326e-05 0.000000e+00  
 0.000000e+00 -4.923723e-05 0.000000e+00  
 1.616745e-06 -4.989811e-05 0.000000e+00  
 1.159601e-06 -4.989032e-05 0.000000e+00  
 2.506082e-06 -4.951514e-05 0.000000e+00  
 2.903680e-06 -4.935892e-05 0.000000e+00  
 2.601731e-06 -4.955822e-05 0.000000e+00  
 2.889811e-06 -4.929108e-05 0.000000e+00  
 2.306644e-06 -4.952586e-05 0.000000e+00  
 1.934497e-06 -4.945187e-05 0.000000e+00  
 1.604624e-06 -4.943102e-05 0.000000e+00  
 3.698172e-06 -4.805374e-05 0.000000e+00  
 2.368529e-06 -4.902403e-05 0.000000e+00  
 1.965417e-06 -4.901479e-05 0.000000e+00  
 2.804680e-06 -4.860622e-05 0.000000e+00  
 2.366871e-06 -4.861285e-05 0.000000e+00  
 0.000000e+00 -4.886440e-05 0.000000e+00  
 0.000000e+00 -4.842801e-05 0.000000e+00  
 3.215382e-06 -4.898914e-05 0.000000e+00  
 3.343152e-06 -4.896463e-05 0.000000e+00  
 4.518421e-06 -4.827488e-05 0.000000e+00  
 4.329072e-06 -4.839142e-05 0.000000e+00  
 4.687439e-06 -4.808944e-05 0.000000e+00  
 4.298401e-06 -4.823087e-05 0.000000e+00  
 4.636091e-06 -4.777895e-05 0.000000e+00  
 4.129000e-06 -4.840762e-05 0.000000e+00  
 3.899456e-06 -4.845668e-05 0.000000e+00  
 5.173517e-06 -4.641398e-05 0.000000e+00  
 6.026168e-06 -4.662968e-05 0.000000e+00  
 6.440417e-06 -4.604095e-05 0.000000e+00  
 4.818625e-06 -4.792893e-05 0.000000e+00  
 4.523776e-06 -4.799935e-05 0.000000e+00  
 5.642867e-06 -4.744737e-05 0.000000e+00  
 5.379440e-06 -4.751552e-05 0.000000e+00  
 3.400309e-06 -4.812232e-05 0.000000e+00  
 3.015264e-06 -4.813322e-05 0.000000e+00  
 3.901950e-06 -4.753177e-05 0.000000e+00  
 0.000000e+00 -4.775610e-05 0.000000e+00  
 0.000000e+00 -4.678862e-05 0.000000e+00  
 5.645116e-06 -4.751032e-05 0.000000e+00  
 5.578878e-06 -4.754147e-05 0.000000e+00  
 6.532951e-06 -4.678123e-05 0.000000e+00  
 6.233870e-06 -4.687671e-05 0.000000e+00  
 6.685130e-06 -4.640841e-05 0.000000e+00  
 6.523660e-06 -4.691525e-05 0.000000e+00  
 6.545021e-06 -4.693592e-05 0.000000e+00  
 6.772046e-06 -4.468351e-05 0.000000e+00  
 7.776424e-06 -4.489624e-05 0.000000e+00  
 8.256749e-06 -4.420375e-05 0.000000e+00  
 8.082258e-06 -4.522596e-05 0.000000e+00  
 8.681398e-06 -4.453415e-05 0.000000e+00  
 8.542339e-06 -4.289090e-05 0.000000e+00  
 1.046802e-05 -4.111029e-05 0.000000e+00  
 7.425274e-06 -4.638993e-05 0.000000e+00  
 7.426234e-06 -4.648474e-05 0.000000e+00  
 8.644617e-06 -4.583742e-05 0.000000e+00  
 7.002518e-06 -4.684919e-05 0.000000e+00  
 8.881152e-06 -4.589591e-05 0.000000e+00  
 7.198467e-06 -4.674774e-05 0.000000e+00  
 4.741285e-06 -4.734811e-05 0.000000e+00  
 5.818542e-06 -4.642777e-05 0.000000e+00  
 1.249009e-05 -3.942648e-05 0.000000e+00  
 1.459631e-05 -3.786211e-05 0.000000e+00  
 7.938660e-06 -4.570474e-05 0.000000e+00  
 8.149396e-06 -4.567246e-05 0.000000e+00  
 8.815659e-06 -4.487359e-05 0.000000e+00  
 9.116296e-06 -4.497538e-05 0.000000e+00  
 9.131013e-06 -4.515733e-05 0.000000e+00  
 9.593853e-06 -4.306395e-05 0.000000e+00  
 1.009707e-05 -4.235388e-05 0.000000e+00  
 9.987057e-06 -4.389723e-05 0.000000e+00  
 1.066651e-05 -4.259018e-05 0.000000e+00  
 1.006574e-05 -4.334183e-05 0.000000e+00  
 1.083893e-05 -4.294203e-05 0.000000e+00  
 1.153073e-05 -4.117630e-05 0.000000e+00  
 1.203194e-05 -4.053424e-05 0.000000e+00  
 1.351404e-05 -3.937810e-05 0.000000e+00  
 1.400025e-05 -3.881285e-05 0.000000e+00  
 1.045121e-05 -4.457375e-05 0.000000e+00  
 1.028393e-05 -4.441484e-05 0.000000e+00  
 1.195724e-05 -4.374090e-05 0.000000e+00  
 1.112097e-05 -4.491099e-05 0.000000e+00  
 1.245061e-05 -4.388233e-05 0.000000e+00  
 1.172218e-05 -4.493572e-05 0.000000e+00  
 9.944851e-06 -4.585155e-05 0.000000e+00  
 1.127108e-05 -4.552049e-05 0.000000e+00  
 1.556043e-05 -3.767608e-05 0.000000e+00  
 1.599655e-05 -3.723516e-05 0.000000e+00  
 1.673953e-05 -3.645464e-05 0.000000e+00  
 1.759788e-05 -3.616036e-05 0.000000e+00  
 1.795603e-05 -3.584645e-05 0.000000e+00  
 1.060883e-05 -4.370766e-05 0.000000e+00  
 1.085623e-05 -4.334713e-05 0.000000e+00  
 1.207777e-05 -4.272649e-05 0.000000e+00  
 1.198211e-05 -4.301275e-05 0.000000e+00  
 1.267210e-05 -4.067808e-05 0.000000e+00  
 1.209984e-05 -4.136051e-05 0.000000e+00  
 1.315042e-05 -4.084388e-05 0.000000e+00  
 1.309991e-05 -4.138135e-05 0.000000e+00  
 1.247531e-05 -4.157101e-05 0.000000e+00  
 1.413076e-05 -3.947690e-05 0.000000e+00  
 1.467855e-05 -3.882804e-05 0.000000e+00  
 1.671522e-05 -3.710692e-05 0.000000e+00  
 1.625777e-05 -3.760379e-05 0.000000e+00  
 1.368011e-05 -4.199885e-05 0.000000e+00  
 1.365852e-05 -4.234749e-05 0.000000e+00  
 1.606463e-05 -4.120429e-05 0.000000e+00  
 1.536544e-05 -4.244590e-05 0.000000e+00  
 1.630903e-05 -4.240224e-05 0.000000e+00  
 1.510484e-05 -4.381159e-05 0.000000e+00  
 1.707482e-05 -4.390138e-05 0.000000e+00  
 1.828860e-05 -3.597705e-05 0.000000e+00  
 1.870415e-05 -3.557089e-05 0.000000e+00  
 1.989313e-05 -3.467675e-05 0.000000e+00  
 1.927626e-05 -3.499302e-05 0.000000e+00  
 2.024750e-05 -3.457557e-05 0.000000e+00  
 2.039649e-05 -3.439119e-05 0.000000e+00  
 1.526308e-05 -4.062276e-05 0.000000e+00  
 1.351768e-05 -4.107346e-05 0.000000e+00  
 1.518833e-05 -4.025477e-05 0.000000e+00  
 1.370481e-05 -4.127759e-05 0.000000e+00  
 1.443324e-05 -3.976421e-05 0.000000e+00  
 1.516411e-05 -3.891611e-05 0.000000e+00  
 1.558184e-05 -3.904835e-05 0.000000e+00  
 1.513219e-05 -3.966217e-05 0.000000e+00  
 1.676252e-05 -3.764854e-05 0.000000e+00  
 1.730042e-05 -3.704980e-05 0.000000e+00  
 1.888601e-05 -3.586849e-05 0.000000e+00  
 1.945546e-05 -3.532778e-05 0.000000e+00  
 2.078737e-05 -3.424038e-05 0.000000e+00  
 2.306968e-05 -3.323536e-05 0.000000e+00  
 1.715260e-05 -4.035570e-05 0.000000e+00  
 1.709528e-05 -3.953502e-05 0.000000e+00  
 1.891392e-05 -3.952163e-05 0.000000e+00  
 2.019655e-05 -4.012203e-05 0.000000e+00  
 1.924389e-05 -4.117541e-05 0.000000e+00  
 2.188795e-05 -4.201628e-05 0.000000e+00  
 2.064831e-05 -3.451625e-05 0.000000e+00  
 2.129897e-05 -3.397266e-05 0.000000e+00  
 2.170387e-05 -3.366292e-05 0.000000e+00  
 2.224406e-05 -3.340045e-05 0.000000e+00  
 2.205952e-05 -3.351218e-05 0.000000e+00  
 2.293570e-05 -3.298659e-05 0.000000e+00  
 1.853538e-05 -3.830703e-05 0.000000e+00  
 1.658621e-05 -3.900345e-05 0.000000e+00  
 1.842084e-05 -3.787461e-05 0.000000e+00  
 1.672702e-05 -3.862633e-05 0.000000e+00  
 1.761083e-05 -3.717574e-05 0.000000e+00  
 1.717627e-05 -3.772624e-05 0.000000e+00  
 1.825818e-05 -3.728948e-05 0.000000e+00  
 1.836162e-05 -3.700013e-05 0.000000e+00  
 2.007072e-05 -3.521453e-05 0.000000e+00  
 1.957201e-05 -3.569038e-05 0.000000e+00  
 2.195405e-05 -3.375569e-05 0.000000e+00  
 2.135775e-05 -3.430025e-05 0.000000e+00  
 0.000000e+00 -2.436023e-06 0.000000e+00  
 0.000000e+00 -2.999893e-06 0.000000e+00  
 0.000000e+00 -4.044275e-06 0.000000e+00  
 2.391167e-05 -3.259551e-05 0.000000e+00  
 2.410664e-05 -3.254329e-05 0.000000e+00  
 2.602049e-05 -3.178063e-05 0.000000e+00  
 2.525695e-05 -3.240966e-05 0.000000e+00  
 2.079922e-05 -3.791207e-05 0.000000e+00  
 2.013077e-05 -3.743183e-05 0.000000e+00  
 2.237254e-05 -3.718206e-05 0.000000e+00  
 2.386716e-05 -3.802703e-05 0.000000e+00  
 2.351657e-05 -3.853923e-05 0.000000e+00  
 2.604259e-05 -4.000774e-05 0.000000e+00  
 2.291454e-05 -3.313739e-05 0.000000e+00  
 2.348737e-05 -3.271641e-05 0.000000e+00  
 2.486195e-05 -3.204379e-05 0.000000e+00  
 2.408925e-05 -3.237412e-05 0.000000e+00  
 2.493968e-05 -3.191252e-05 0.000000e+00  
 2.434184e-05 -3.222788e-05 0.000000e+00  
 2.608037e-05 -3.147528e-05 0.000000e+00  
 2.187396e-05 -3.596425e-05 0.000000e+00  
 2.016105e-05 -3.635948e-05 0.000000e+00  
 2.171060e-05 -3.549485e-05 0.000000e+00  
 2.003968e-05 -3.618129e-05 0.000000e+00  
 2.053846e-05 -3.524493e-05 0.000000e+00  
 2.150501e-05 -3.491448e-05 0.000000e+00  
 2.274172e-05 -3.348997e-05 0.000000e+00  
 2.256967e-05 -3.375565e-05 0.000000e+00  
 2.417413e-05 -3.252809e-05 0.000000e+00  
 2.416098e-05 -3.243123e-05 0.000000e+00  
 0.000000e+00 -1.984039e-06 0.000000e+00  
 0.000000e+00 -1.613879e-06 0.000000e+00  
 0.000000e+00 -1.284461e-06 0.000000e+00  
 0.000000e+00 -9.655775e-07 0.000000e+00  
 2.180458e-06 -2.206347e-06 0.000000e+00  
 3.241079e-06 -2.672080e-06 0.000000e+00  
 3.059923e-06 -2.686657e-06 0.000000e+00  
 4.251879e-06 -3.290959e-06 0.000000e+00  
 3.857206e-06 -3.313203e-06 0.000000e+00  
 5.152285e-06 -4.297367e-06 0.000000e+00  
 0.000000e+00 -6.065781e-07 0.000000e+00  
 0.000000e+00 -2.637310e-07 0.000000e+00  
 0.000000e+00 0.000000e+00 0.000000e+00  
 9.327522e-06 -4.869564e-06 0.000000e+00  
 2.698860e-05 -3.118961e-05 0.000000e+00  
 2.637767e-05 -3.161563e-05 0.000000e+00  
 2.800751e-05 -3.114424e-05 0.000000e+00  
 2.736529e-05 -3.173860e-05 0.000000e+00  
 2.367953e-05 -3.508384e-05 0.000000e+00  
 2.403215e-05 -3.574510e-05 0.000000e+00  
 2.681055e-05 -3.621780e-05 0.000000e+00  
 2.600877e-05 -3.498947e-05 0.000000e+00  
 2.782703e-05 -3.606719e-05 0.000000e+00  
 2.968372e-05 -3.796325e-05 0.000000e+00  
 2.509662e-05 -3.392073e-05 0.000000e+00  
 2.562722e-05 -3.155930e-05 0.000000e+00  
 2.557617e-05 -3.156497e-05 0.000000e+00  
 2.714992e-05 -3.087001e-05 0.000000e+00  
 2.647588e-05 -3.114459e-05 0.000000e+00  
 2.709071e-05 -3.078656e-05 0.000000e+00  
 2.828873e-05 -3.063655e-05 0.000000e+00  
 2.777527e-05 -3.059565e-05 0.000000e+00  
 2.879368e-05 -3.030097e-05 0.000000e+00  
 2.334326e-05 -3.421797e-05 0.000000e+00  
 2.514500e-05 -3.333138e-05 0.000000e+00  
 2.351815e-05 -3.370234e-05 0.000000e+00  
 2.304112e-05 -3.391259e-05 0.000000e+00  
 2.402357e-05 -3.294159e-05 0.000000e+00  
 2.466976e-05 -3.251728e-05 0.000000e+00  
 2.541923e-05 -3.182614e-05 0.000000e+00  
 2.571459e-05 -3.173852e-05 0.000000e+00  
 2.686427e-05 -3.094387e-05 0.000000e+00  
 2.664424e-05 -3.102020e-05 0.000000e+00  
 2.748036e-06 -2.199650e-06 0.000000e+00  
 1.940442e-06 -1.847120e-06 0.000000e+00  
 2.470547e-06 -1.798001e-06 0.000000e+00  
 2.043497e-06 -1.564502e-06 0.000000e+00  
 2.218971e-06 -1.483713e-06 0.000000e+00  
 1.586554e-06 -1.158412e-06 0.000000e+00  
 1.786987e-06 -1.052040e-06 0.000000e+00  
 1.252349e-06 -7.802265e-07 0.000000e+00  
 4.053463e-06 -2.636892e-06 0.000000e+00  
 5.538515e-06 -3.344477e-06 0.000000e+00  
 5.575062e-06 -3.340596e-06 0.000000e+00  
 7.019376e-06 -3.984377e-06 0.000000e+00  
 6.950559e-06 -3.988678e-06 0.000000e+00  
 8.321508e-06 -4.465036e-06 0.000000e+00  
 1.433503e-06 -6.014530e-07 0.000000e+00  
 1.287080e-06 -5.174508e-07 0.000000e+00  
 1.015560e-06 -2.637005e-07 0.000000e+00  
 1.149000e-05 -5.685899e-06 0.000000e+00  
 1.461778e-05 -6.220140e-06 0.000000e+00  
 2.924598e-05 -3.042088e-05 0.000000e+00  
 2.880188e-05 -3.081643e-05 0.000000e+00  
 2.995167e-05 -3.059043e-05 0.000000e+00  
 2.964253e-05 -3.113765e-05 0.000000e+00  
 3.116356e-05 -3.081445e-05 0.000000e+00  
 3.057634e-05 -2.991377e-05 0.000000e+00  
 2.628334e-05 -3.248757e-05 0.000000e+00  
 3.301490e-05 -3.573003e-05 0.000000e+00  
 2.937478e-05 -3.309762e-05 0.000000e+00  
 2.717659e-05 -3.304732e-05 0.000000e+00  
 2.749253e-05 -3.371367e-05 0.000000e+00  
 3.000687e-05 -3.423241e-05 0.000000e+00  
 3.167688e-05 -3.397917e-05 0.000000e+00  
 2.857794e-05 -3.186826e-05 0.000000e+00  
 2.840156e-05 -3.150994e-05 0.000000e+00  
 2.777445e-05 -3.044945e-05 0.000000e+00  
 2.814348e-05 -3.024316e-05 0.000000e+00  
 2.894477e-05 -2.993835e-05 0.000000e+00  
 2.907376e-05 -2.995899e-05 0.000000e+00  
 3.078249e-05 -2.958165e-05 0.000000e+00  
 3.014623e-05 -2.974801e-05 0.000000e+00  
 3.030899e-05 -2.950842e-05 0.000000e+00  
 2.615355e-05 -3.201711e-05 0.000000e+00  
 2.661896e-05 -3.184462e-05 0.000000e+00  
 2.637469e-05 -3.167228e-05 0.000000e+00  
 2.774245e-05 -3.078787e-05 0.000000e+00  
 2.757503e-05 -3.072203e-05 0.000000e+00  
 2.818713e-05 -3.026517e-05 0.000000e+00  
 2.841082e-05 -3.022007e-05 0.000000e+00  
 2.905106e-05 -2.980421e-05 0.000000e+00  
 2.936343e-05 -2.965731e-05 0.000000e+00  
 4.009004e-06 -2.428806e-06 0.000000e+00  
 4.702323e-06 -2.837911e-06 0.000000e+00  
 4.632220e-06 -2.674074e-06 0.000000e+00  
 3.961814e-06 -2.199711e-06 0.000000e+00  
 3.008842e-06 -1.564006e-06 0.000000e+00  
 3.099457e-06 -1.589941e-06 0.000000e+00  
 2.281379e-06 -1.052543e-06 0.000000e+00  
 7.199978e-06 -4.169330e-06 0.000000e+00  
 6.215482e-06 -3.655531e-06 0.000000e+00  
 9.370804e-06 -5.118387e-06 0.000000e+00  
 8.089874e-06 -4.683779e-06 0.000000e+00  
 9.512445e-06 -5.289603e-06 0.000000e+00  
 1.158212e-05 -5.832065e-06 0.000000e+00  
 2.651758e-06 -1.289741e-06 0.000000e+00  
 1.989798e-06 -9.696297e-07 0.000000e+00  
 1.383699e-05 -7.103306e-06 0.000000e+00  
 1.574416e-05 -7.855820e-06 0.000000e+00  
 1.781986e-05 -7.150808e-06 0.000000e+00  
 3.127512e-05 -2.977729e-05 0.000000e+00  
 3.120889e-05 -3.014028e-05 0.000000e+00  
 3.202092e-05 -3.002854e-05 0.000000e+00  
 3.215047e-05 -3.011553e-05 0.000000e+00  
 3.360688e-05 -2.998731e-05 0.000000e+00  
 3.344343e-05 -3.043448e-05 0.000000e+00  
 3.252336e-05 -2.935009e-05 0.000000e+00  
 3.282375e-05 -2.899417e-05 0.000000e+00  
 3.195655e-05 -2.915642e-05 0.000000e+00  
 3.561781e-05 -3.358537e-05 0.000000e+00  
 2.874831e-05 -3.063971e-05 0.000000e+00  
 2.950576e-05 -3.062978e-05 0.000000e+00  
 3.319143e-05 -3.213958e-05 0.000000e+00  
 3.474093e-05 -3.181928e-05 0.000000e+00  
 3.056959e-05 -3.110875e-05 0.000000e+00  
 3.268117e-05 -3.141326e-05 0.000000e+00  
 3.065818e-05 -3.199039e-05 0.000000e+00  
 3.144728e-05 -3.046032e-05 0.000000e+00  
 3.082925e-05 -2.996053e-05 0.000000e+00  
 3.178977e-05 -2.983214e-05 0.000000e+00  
 3.034024e-05 -2.924066e-05 0.000000e+00  
 3.025764e-05 -2.933444e-05 0.000000e+00  
 3.137987e-05 -2.893626e-05 0.000000e+00  
 3.237764e-05 -2.879374e-05 0.000000e+00  
 3.120679e-05 -2.912741e-05 0.000000e+00  
 2.944634e-05 -3.011443e-05 0.000000e+00  
 2.902768e-05 -3.014706e-05 0.000000e+00  
 3.029118e-05 -2.939419e-05 0.000000e+00  
 2.985742e-05 -2.950703e-05 0.000000e+00  
 3.086165e-05 -2.899018e-05 0.000000e+00  
 3.047215e-05 -2.914165e-05 0.000000e+00  
 3.156138e-05 -2.867159e-05 0.000000e+00  
 3.132600e-05 -2.880711e-05 0.000000e+00  
 6.155962e-06 -3.630204e-06 0.000000e+00  
 6.807933e-06 -4.036557e-06 0.000000e+00  
 6.782202e-06 -4.097765e-06 0.000000e+00  
 6.320944e-06 -3.802616e-06 0.000000e+00  
 5.361234e-06 -3.103649e-06 0.000000e+00  
 4.912588e-06 -2.823715e-06 0.000000e+00  
 4.232564e-06 -2.335784e-06 0.000000e+00  
 3.736987e-06 -2.085530e-06 0.000000e+00  
 8.542769e-06 -5.230551e-06 0.000000e+00  
 9.282394e-06 -5.581161e-06 0.000000e+00  
 1.296451e-05 -7.445733e-06 0.000000e+00  
 1.098732e-05 -6.721348e-06 0.000000e+00  
 1.179309e-05 -6.818764e-06 0.000000e+00  
 1.429012e-05 -8.446131e-06 0.000000e+00  
 4.142613e-06 -2.538453e-06 0.000000e+00  
 3.257511e-06 -2.246773e-06 0.000000e+00  
 1.680857e-05 -9.738055e-06 0.000000e+00  
 1.722489e-05 -8.842548e-06 0.000000e+00  
 2.002045e-05 -9.735619e-06 0.000000e+00  
 2.223026e-05 -8.932041e-06 0.000000e+00  
 1.730865e-05 -1.015370e-05 0.000000e+00  
 2.596382e-05 -1.071218e-05 0.000000e+00  
 2.923581e-05 -1.253897e-05 0.000000e+00  
 3.344586e-05 -2.944964e-05 0.000000e+00  
 3.347003e-05 -2.923876e-05 0.000000e+00  
 3.461258e-05 -2.939461e-05 0.000000e+00  
 3.449472e-05 -2.968624e-05 0.000000e+00  
 3.553367e-05 -2.969109e-05 0.000000e+00  
 3.534776e-05 -3.019294e-05 0.000000e+00  
 3.454180e-05 -2.887090e-05 0.000000e+00  
 3.474156e-05 -2.857094e-05 0.000000e+00  
 3.296848e-05 -2.857892e-05 0.000000e+00  
 3.421448e-05 -2.831710e-05 0.000000e+00  
 3.374374e-05 -2.869576e-05 0.000000e+00  
 3.759539e-05 -3.152808e-05 0.000000e+00  
 3.589026e-05 -3.038342e-05 0.000000e+00  
 3.724434e-05 -3.003981e-05 0.000000e+00  
 3.118857e-05 -2.926242e-05 0.000000e+00  
 3.182133e-05 -2.917169e-05 0.000000e+00  
 3.397907e-05 -2.995500e-05 0.000000e+00  
 3.566108e-05 -2.959729e-05 0.000000e+00  
 3.384770e-05 -2.974314e-05 0.000000e+00  
 3.459474e-05 -2.888709e-05 0.000000e+00  
 3.366901e-05 -2.880307e-05 0.000000e+00  
 3.319902e-05 -2.854289e-05 0.000000e+00  
 3.398268e-05 -2.849526e-05 0.000000e+00  
 3.248458e-05 -2.848810e-05 0.000000e+00  
 3.272383e-05 -2.830208e-05 0.000000e+00  
 3.355725e-05 -2.820476e-05 0.000000e+00  
 3.150619e-05 -2.883497e-05 0.000000e+00  
 3.203674e-05 -2.871127e-05 0.000000e+00  
 3.204443e-05 -2.846983e-05 0.000000e+00  
 3.254450e-05 -2.830260e-05 0.000000e+00  
 3.271327e-05 -2.819385e-05 0.000000e+00  
 3.300136e-05 -2.806500e-05 0.000000e+00  
 3.339023e-05 -2.803946e-05 0.000000e+00  
 3.355724e-05 -2.790020e-05 0.000000e+00  
 3.238976e-05 -1.461836e-05 0.000000e+00  
 3.475407e-05 -1.645101e-05 0.000000e+00  
 9.038229e-06 -5.669075e-06 0.000000e+00  
 8.411436e-06 -5.331552e-06 0.000000e+00  
 9.072660e-06 -5.959351e-06 0.000000e+00  
 7.429792e-06 -4.797597e-06 0.000000e+00  
 8.453224e-06 -5.615913e-06 0.000000e+00  
 6.866446e-06 -4.485252e-06 0.000000e+00  
 5.917443e-06 -3.733626e-06 0.000000e+00  
 5.261876e-06 -3.436079e-06 0.000000e+00  
 1.177937e-05 -7.449358e-06 0.000000e+00  
 1.097177e-05 -7.173799e-06 0.000000e+00  
 1.428529e-05 -9.134063e-06 0.000000e+00  
 1.364802e-05 -8.806416e-06 0.000000e+00  
 1.656984e-05 -1.079859e-05 0.000000e+00  
 1.754105e-05 -1.117555e-05 0.000000e+00  
 5.774767e-06 -4.144215e-06 0.000000e+00  
 4.651253e-06 -3.791077e-06 0.000000e+00  
 2.149820e-05 -1.139987e-05 0.000000e+00  
 2.036008e-05 -1.165536e-05 0.000000e+00  
 2.357171e-05 -1.215480e-05 0.000000e+00  
 2.117090e-05 -1.294964e-05 0.000000e+00  
 1.967338e-05 -1.267841e-05 0.000000e+00  
 2.473946e-05 -1.331279e-05 0.000000e+00  
 2.744004e-05 -1.420875e-05 0.000000e+00  
 3.068540e-05 -1.633770e-05 0.000000e+00  
 2.816443e-05 -1.524711e-05 0.000000e+00  
 3.716023e-05 -3.002874e-05 0.000000e+00  
 3.865630e-05 -2.993904e-05 0.000000e+00  
 3.574058e-05 -2.878197e-05 0.000000e+00  
 3.559812e-05 -2.907406e-05 0.000000e+00  
 3.674111e-05 -2.907527e-05 0.000000e+00  
 3.661375e-05 -2.942581e-05 0.000000e+00  
 3.730144e-05 -2.948146e-05 0.000000e+00  
 4.046386e-05 -2.988207e-05 0.000000e+00  
 4.202069e-05 -2.986709e-05 0.000000e+00  
 3.646820e-05 -2.855136e-05 0.000000e+00  
 3.658097e-05 -2.824026e-05 0.000000e+00  
 3.558421e-05 -2.831484e-05 0.000000e+00  
 3.426445e-05 -2.796726e-05 0.000000e+00  
 3.527975e-05 -2.781412e-05 0.000000e+00  
 3.591233e-05 -2.799137e-05 0.000000e+00  
 3.474682e-05 -2.814706e-05 0.000000e+00  
 3.905884e-05 -2.942090e-05 0.000000e+00  
 3.994007e-05 -2.725773e-05 0.000000e+00  
 4.017074e-05 -2.527662e-05 0.000000e+00  
 3.812837e-05 -2.879249e-05 0.000000e+00  
 3.908059e-05 -2.844606e-05 0.000000e+00  
 3.684775e-05 -2.848353e-05 0.000000e+00  
 3.810499e-05 -2.830905e-05 0.000000e+00  
 3.405223e-05 -2.799254e-05 0.000000e+00  
 3.339011e-05 -2.812167e-05 0.000000e+00  
 3.687896e-05 -2.815135e-05 0.000000e+00  
 3.594796e-05 -2.819902e-05 0.000000e+00  
 3.547306e-05 -2.776794e-05 0.000000e+00  
 3.635365e-05 -2.766833e-05 0.000000e+00  
 3.500658e-05 -2.760203e-05 0.000000e+00  
 3.582483e-05 -2.746252e-05 0.000000e+00  
 3.488964e-05 -2.766142e-05 0.000000e+00  
 3.453479e-05 -2.769143e-05 0.000000e+00  
 3.422361e-05 -2.768450e-05 0.000000e+00  
 3.361187e-05 -2.786398e-05 0.000000e+00  
 3.416994e-05 -2.761449e-05 0.000000e+00  
 3.454771e-05 -2.747649e-05 0.000000e+00  
 3.511575e-05 -2.730307e-05 0.000000e+00  
 3.478616e-05 -2.745495e-05 0.000000e+00  
 3.562985e-05 -2.725371e-05 0.000000e+00  
 3.720702e-05 -1.878597e-05 0.000000e+00  
 3.119530e-05 -1.734426e-05 0.000000e+00  
 3.266441e-05 -1.825924e-05 0.000000e+00  
 3.409354e-05 -1.822057e-05 0.000000e+00  
 3.683839e-05 -1.981761e-05 0.000000e+00  