# vtk DataFile Version 1.0 
PolyMesh 
ASCII 
 
DATASET POLYDATA 
 
POINTS 17935 float 
4.959338e+00 2.000000e+00 0.000000e+00  
 5.000000e+00 2.000000e+00 0.000000e+00  
 4.909742e+00 2.000000e+00 0.000000e+00  
 4.911235e+00 1.961824e+00 0.000000e+00  
 4.953133e+00 1.951884e+00 0.000000e+00  
 4.955310e+00 1.948709e+00 0.000000e+00  
 5.000000e+00 1.946527e+00 0.000000e+00  
 4.862187e+00 2.000000e+00 0.000000e+00  
 5.000000e+00 1.896573e+00 0.000000e+00  
 5.000000e+00 1.842740e+00 0.000000e+00  
 4.894313e+00 1.946333e+00 0.000000e+00  
 4.861408e+00 1.964569e+00 0.000000e+00  
 4.894277e+00 1.931599e+00 0.000000e+00  
 4.917936e+00 1.909101e+00 0.000000e+00  
 4.946206e+00 1.915554e+00 0.000000e+00  
 4.964113e+00 1.894761e+00 0.000000e+00  
 5.000000e+00 1.791503e+00 0.000000e+00  
 4.811303e+00 2.000000e+00 0.000000e+00  
 4.838757e+00 1.949452e+00 0.000000e+00  
 4.811745e+00 1.962399e+00 0.000000e+00  
 4.949954e+00 1.862130e+00 0.000000e+00  
 4.962735e+00 1.843045e+00 0.000000e+00  
 4.949186e+00 1.814426e+00 0.000000e+00  
 4.964776e+00 1.791082e+00 0.000000e+00  
 4.840772e+00 1.917603e+00 0.000000e+00  
 4.863568e+00 1.908026e+00 0.000000e+00  
 4.871623e+00 1.880532e+00 0.000000e+00  
 4.916429e+00 1.863722e+00 0.000000e+00  
 4.907779e+00 1.877213e+00 0.000000e+00  
 5.000000e+00 1.739579e+00 0.000000e+00  
 4.949848e+00 1.763865e+00 0.000000e+00  
 4.965708e+00 1.739556e+00 0.000000e+00  
 4.761354e+00 2.000000e+00 0.000000e+00  
 4.789472e+00 1.948121e+00 0.000000e+00  
 4.761202e+00 1.963521e+00 0.000000e+00  
 4.818346e+00 1.903414e+00 0.000000e+00  
 4.788794e+00 1.921449e+00 0.000000e+00  
 4.918210e+00 1.812764e+00 0.000000e+00  
 4.904140e+00 1.832344e+00 0.000000e+00  
 4.922358e+00 1.763210e+00 0.000000e+00  
 4.907775e+00 1.785802e+00 0.000000e+00  
 4.855447e+00 1.858180e+00 0.000000e+00  
 4.816210e+00 1.881088e+00 0.000000e+00  
 4.842794e+00 1.857317e+00 0.000000e+00  
 4.875538e+00 1.831079e+00 0.000000e+00  
 5.000000e+00 1.688200e+00 0.000000e+00  
 4.949704e+00 1.712250e+00 0.000000e+00  
 4.965532e+00 1.688358e+00 0.000000e+00  
 4.925515e+00 1.712177e+00 0.000000e+00  
 4.908061e+00 1.736721e+00 0.000000e+00  
 4.710559e+00 2.000000e+00 0.000000e+00  
 4.737871e+00 1.948758e+00 0.000000e+00  
 4.711008e+00 1.962037e+00 0.000000e+00  
 4.739021e+00 1.917856e+00 0.000000e+00  
 4.764845e+00 1.905953e+00 0.000000e+00  
 4.885669e+00 1.735101e+00 0.000000e+00  
 4.767583e+00 1.874027e+00 0.000000e+00  
 4.787385e+00 1.864806e+00 0.000000e+00  
 4.870406e+00 1.782290e+00 0.000000e+00  
 4.859812e+00 1.799555e+00 0.000000e+00  
 4.864769e+00 1.762224e+00 0.000000e+00  
 4.830051e+00 1.804252e+00 0.000000e+00  
 4.793302e+00 1.832600e+00 0.000000e+00  
 4.820023e+00 1.825807e+00 0.000000e+00  
 5.000000e+00 1.637931e+00 0.000000e+00  
 5.000000e+00 1.589973e+00 0.000000e+00  
 4.949811e+00 1.660588e+00 0.000000e+00  
 4.962742e+00 1.638688e+00 0.000000e+00  
 4.908660e+00 1.683877e+00 0.000000e+00  
 4.921110e+00 1.662330e+00 0.000000e+00  
 4.881081e+00 1.686530e+00 0.000000e+00  
 4.869558e+00 1.709190e+00 0.000000e+00  
 5.000000e+00 1.543329e+00 0.000000e+00  
 4.688529e+00 1.947919e+00 0.000000e+00  
 4.662080e+00 1.959620e+00 0.000000e+00  
 4.660061e+00 2.000000e+00 0.000000e+00  
 4.615707e+00 2.000000e+00 0.000000e+00  
 4.717504e+00 1.904015e+00 0.000000e+00  
 4.690171e+00 1.914776e+00 0.000000e+00  
 4.719685e+00 1.869501e+00 0.000000e+00  
 4.743643e+00 1.859966e+00 0.000000e+00  
 4.832144e+00 1.748308e+00 0.000000e+00  
 4.840982e+00 1.712458e+00 0.000000e+00  
 4.747080e+00 1.824268e+00 0.000000e+00  
 4.773245e+00 1.815740e+00 0.000000e+00  
 4.809861e+00 1.776785e+00 0.000000e+00  
 4.816784e+00 1.755363e+00 0.000000e+00  
 4.779087e+00 1.786888e+00 0.000000e+00  
 4.948603e+00 1.611775e+00 0.000000e+00  
 4.960207e+00 1.590518e+00 0.000000e+00  
 4.947813e+00 1.564994e+00 0.000000e+00  
 4.959182e+00 1.543547e+00 0.000000e+00  
 4.916544e+00 1.613650e+00 0.000000e+00  
 4.905297e+00 1.634658e+00 0.000000e+00  
 4.874952e+00 1.637634e+00 0.000000e+00  
 4.863840e+00 1.660982e+00 0.000000e+00  
 4.835679e+00 1.664689e+00 0.000000e+00  
 4.825166e+00 1.696502e+00 0.000000e+00  
 5.000000e+00 1.497255e+00 0.000000e+00  
 5.000000e+00 1.451743e+00 0.000000e+00  
 4.947439e+00 1.518573e+00 0.000000e+00  
 4.958805e+00 1.497344e+00 0.000000e+00  
 4.670602e+00 1.901600e+00 0.000000e+00  
 4.643236e+00 1.910621e+00 0.000000e+00  
 4.638627e+00 1.944690e+00 0.000000e+00  
 4.611193e+00 1.955360e+00 0.000000e+00  
 4.603189e+00 1.951475e+00 0.000000e+00  
 4.564166e+00 1.967687e+00 0.000000e+00  
 4.562993e+00 2.000000e+00 0.000000e+00  
 4.698988e+00 1.856875e+00 0.000000e+00  
 4.673550e+00 1.865990e+00 0.000000e+00  
 4.727144e+00 1.811287e+00 0.000000e+00  
 4.701526e+00 1.820588e+00 0.000000e+00  
 4.788380e+00 1.730966e+00 0.000000e+00  
 4.798634e+00 1.700211e+00 0.000000e+00  
 4.756228e+00 1.765832e+00 0.000000e+00  
 4.730045e+00 1.775048e+00 0.000000e+00  
 4.763592e+00 1.738268e+00 0.000000e+00  
 4.902176e+00 1.586565e+00 0.000000e+00  
 4.913222e+00 1.565758e+00 0.000000e+00  
 4.901279e+00 1.540378e+00 0.000000e+00  
 4.913038e+00 1.518769e+00 0.000000e+00  
 4.870184e+00 1.588949e+00 0.000000e+00  
 4.858482e+00 1.611960e+00 0.000000e+00  
 4.830477e+00 1.614664e+00 0.000000e+00  
 4.816994e+00 1.644181e+00 0.000000e+00  
 4.780040e+00 1.680756e+00 0.000000e+00  
 4.796521e+00 1.646583e+00 0.000000e+00  
 5.000000e+00 1.406491e+00 0.000000e+00  
 4.947374e+00 1.472049e+00 0.000000e+00  
 4.958553e+00 1.451589e+00 0.000000e+00  
 4.947869e+00 1.426530e+00 0.000000e+00  
 4.959198e+00 1.406125e+00 0.000000e+00  
 4.912980e+00 1.472184e+00 0.000000e+00  
 4.900761e+00 1.492797e+00 0.000000e+00  
 4.653240e+00 1.852962e+00 0.000000e+00  
 4.622332e+00 1.894662e+00 0.000000e+00  
 4.630682e+00 1.860327e+00 0.000000e+00  
 4.598549e+00 1.900287e+00 0.000000e+00  
 4.588898e+00 1.915988e+00 0.000000e+00  
 4.559688e+00 1.919020e+00 0.000000e+00  
 4.545533e+00 1.949006e+00 0.000000e+00  
 4.529029e+00 1.950210e+00 0.000000e+00  
 4.509890e+00 1.972088e+00 0.000000e+00  
 4.511865e+00 2.000000e+00 0.000000e+00  
 4.657090e+00 1.818288e+00 0.000000e+00  
 4.680024e+00 1.807533e+00 0.000000e+00  
 4.708777e+00 1.761782e+00 0.000000e+00  
 4.680907e+00 1.777798e+00 0.000000e+00  
 4.740377e+00 1.715003e+00 0.000000e+00  
 4.760614e+00 1.681527e+00 0.000000e+00  
 4.727956e+00 1.715529e+00 0.000000e+00  
 4.706710e+00 1.736598e+00 0.000000e+00  
 4.865907e+00 1.540291e+00 0.000000e+00  
 4.854624e+00 1.561929e+00 0.000000e+00  
 4.855306e+00 1.517021e+00 0.000000e+00  
 4.869522e+00 1.492593e+00 0.000000e+00  
 4.742103e+00 1.660090e+00 0.000000e+00  
 4.824266e+00 1.565039e+00 0.000000e+00  
 4.811968e+00 1.590522e+00 0.000000e+00  
 4.786242e+00 1.593865e+00 0.000000e+00  
 4.773559e+00 1.624566e+00 0.000000e+00  
 4.753709e+00 1.628603e+00 0.000000e+00  
 5.000000e+00 1.361137e+00 0.000000e+00  
 5.000000e+00 1.314995e+00 0.000000e+00  
 4.948527e+00 1.381248e+00 0.000000e+00  
 4.960574e+00 1.360546e+00 0.000000e+00  
 4.912001e+00 1.425826e+00 0.000000e+00  
 4.900769e+00 1.443883e+00 0.000000e+00  
 4.902549e+00 1.398974e+00 0.000000e+00  
 4.914420e+00 1.379928e+00 0.000000e+00  
 4.854921e+00 1.465549e+00 0.000000e+00  
 4.869267e+00 1.444575e+00 0.000000e+00  
 5.000000e+00 1.228689e+00 0.000000e+00  
 5.000000e+00 1.269304e+00 0.000000e+00  
 5.000000e+00 1.185825e+00 0.000000e+00  
 5.000000e+00 1.138851e+00 0.000000e+00  
 4.629705e+00 1.803212e+00 0.000000e+00  
 4.607823e+00 1.843661e+00 0.000000e+00  
 4.613381e+00 1.812309e+00 0.000000e+00  
 4.576097e+00 1.866545e+00 0.000000e+00  
 4.582812e+00 1.852321e+00 0.000000e+00  
 4.548304e+00 1.875182e+00 0.000000e+00  
 4.540908e+00 1.894612e+00 0.000000e+00  
 4.512331e+00 1.903034e+00 0.000000e+00  
 4.506277e+00 1.918500e+00 0.000000e+00  
 4.479366e+00 1.929100e+00 0.000000e+00  
 4.475531e+00 1.955319e+00 0.000000e+00  
 4.459033e+00 1.966546e+00 0.000000e+00  
 4.457253e+00 2.000000e+00 0.000000e+00  
 4.632762e+00 1.773427e+00 0.000000e+00  
 4.654857e+00 1.761654e+00 0.000000e+00  
 4.657845e+00 1.731388e+00 0.000000e+00  
 4.673014e+00 1.722378e+00 0.000000e+00  
 4.710814e+00 1.663628e+00 0.000000e+00  
 4.702770e+00 1.680013e+00 0.000000e+00  
 4.678012e+00 1.688792e+00 0.000000e+00  
 4.698594e+00 1.638990e+00 0.000000e+00  
 4.831516e+00 1.465354e+00 0.000000e+00  
 4.805836e+00 1.537470e+00 0.000000e+00  
 4.819575e+00 1.513380e+00 0.000000e+00  
 4.812332e+00 1.494639e+00 0.000000e+00  
 4.781813e+00 1.540225e+00 0.000000e+00  
 4.726470e+00 1.606075e+00 0.000000e+00  
 4.765658e+00 1.570896e+00 0.000000e+00  
 4.748366e+00 1.572402e+00 0.000000e+00  
 4.949431e+00 1.335017e+00 0.000000e+00  
 4.962059e+00 1.315081e+00 0.000000e+00  
 4.949425e+00 1.286105e+00 0.000000e+00  
 4.956778e+00 1.271597e+00 0.000000e+00  
 4.919041e+00 1.333543e+00 0.000000e+00  
 4.903884e+00 1.352848e+00 0.000000e+00  
 4.878312e+00 1.349612e+00 0.000000e+00  
 4.854195e+00 1.411155e+00 0.000000e+00  
 4.863324e+00 1.396611e+00 0.000000e+00  
 4.857567e+00 1.373206e+00 0.000000e+00  
 4.823384e+00 1.416108e+00 0.000000e+00  
 4.813403e+00 1.440841e+00 0.000000e+00  
 4.952634e+00 1.146836e+00 0.000000e+00  
 4.962422e+00 1.183741e+00 0.000000e+00  
 4.949560e+00 1.199568e+00 0.000000e+00  
 4.946278e+00 1.244003e+00 0.000000e+00  
 4.957276e+00 1.226885e+00 0.000000e+00  
 4.947290e+00 1.143136e+00 0.000000e+00  
 5.000000e+00 1.104269e+00 0.000000e+00  
 4.942590e+00 1.124883e+00 0.000000e+00  
 4.961410e+00 1.097626e+00 0.000000e+00  
 4.606632e+00 1.757431e+00 0.000000e+00  
 4.577867e+00 1.776863e+00 0.000000e+00  
 4.580367e+00 1.796656e+00 0.000000e+00  
 4.560226e+00 1.819524e+00 0.000000e+00  
 4.541377e+00 1.820418e+00 0.000000e+00  
 4.527422e+00 1.849462e+00 0.000000e+00  
 4.500585e+00 1.853791e+00 0.000000e+00  
 4.492084e+00 1.875991e+00 0.000000e+00  
 4.462803e+00 1.883943e+00 0.000000e+00  
[...]
 POINT_DATA 17935 
 VECTORS Displacement float 
 6.187506e-05 -7.323500e-06 0.000000e+00  
 6.228166e-05 -6.929389e-06 0.000000e+00  
 6.137968e-05 -7.805113e-06 0.000000e+00  
 6.176460e-05 -7.676291e-06 0.000000e+00  
 6.227919e-05 -7.239352e-06 0.000000e+00  
 6.233165e-05 -7.208567e-06 0.000000e+00  
 6.279964e-05 -6.768869e-06 0.000000e+00  
 6.090609e-05 -8.267240e-06 0.000000e+00  
 6.328255e-05 -6.618115e-06 0.000000e+00  
 6.380281e-05 -6.453632e-06 0.000000e+00  
 6.174555e-05 -7.794511e-06 0.000000e+00  
 6.124146e-05 -8.169031e-06 0.000000e+00  
 6.188740e-05 -7.750687e-06 0.000000e+00  
 6.234072e-05 -7.452797e-06 0.000000e+00  
 6.256100e-05 -7.197208e-06 0.000000e+00  
 6.294086e-05 -6.960336e-06 0.000000e+00  
 6.429937e-05 -6.294686e-06 0.000000e+00  
 6.040117e-05 -8.760783e-06 0.000000e+00  
 6.116195e-05 -8.343929e-06 0.000000e+00  
 6.076856e-05 -8.644536e-06 0.000000e+00  
 6.311421e-05 -6.998973e-06 0.000000e+00  
 6.342653e-05 -6.816349e-06 0.000000e+00  
 6.356769e-05 -6.861033e-06 0.000000e+00  
 6.395023e-05 -6.636917e-06 0.000000e+00  
 6.148875e-05 -8.229288e-06 0.000000e+00  
 6.180832e-05 -7.978935e-06 0.000000e+00  
 6.215358e-05 -7.818171e-06 0.000000e+00  
 6.276342e-05 -7.330621e-06 0.000000e+00  
 6.254682e-05 -7.455702e-06 0.000000e+00  
 6.480577e-05 -6.131002e-06 0.000000e+00  
 6.406534e-05 -6.699412e-06 0.000000e+00  
 6.446178e-05 -6.468064e-06 0.000000e+00  
 5.990718e-05 -9.243064e-06 0.000000e+00  
 6.068464e-05 -8.817542e-06 0.000000e+00  
 6.025611e-05 -9.136118e-06 0.000000e+00  
 6.140172e-05 -8.404713e-06 0.000000e+00  
 6.093401e-05 -8.744677e-06 0.000000e+00  
 6.327361e-05 -7.159024e-06 0.000000e+00  
 6.294350e-05 -7.355881e-06 0.000000e+00  
 6.379627e-05 -6.967889e-06 0.000000e+00  
 6.343057e-05 -7.179685e-06 0.000000e+00  
 6.220737e-05 -7.908865e-06 0.000000e+00  
 6.159505e-05 -8.358862e-06 0.000000e+00  
 6.208928e-05 -8.029587e-06 0.000000e+00  
 6.266968e-05 -7.631682e-06 0.000000e+00  
 6.531183e-05 -5.966459e-06 0.000000e+00  
 6.456929e-05 -6.541558e-06 0.000000e+00  
 6.496400e-05 -6.309837e-06 0.000000e+00  
 6.432752e-05 -6.781379e-06 0.000000e+00  
 6.391182e-05 -7.028515e-06 0.000000e+00  
 5.940606e-05 -9.730185e-06 0.000000e+00  
 6.016603e-05 -9.316491e-06 0.000000e+00  
 5.977274e-05 -9.613213e-06 0.000000e+00  
 6.047295e-05 -9.213582e-06 0.000000e+00  
 6.084414e-05 -8.929731e-06 0.000000e+00  
 6.370352e-05 -7.244633e-06 0.000000e+00  
 6.117755e-05 -8.808417e-06 0.000000e+00  
 6.146386e-05 -8.589688e-06 0.000000e+00  
 6.309067e-05 -7.535754e-06 0.000000e+00  
 6.281728e-05 -7.690983e-06 0.000000e+00  
 6.322943e-05 -7.531102e-06 0.000000e+00  
 6.247408e-05 -7.995609e-06 0.000000e+00  
 6.183284e-05 -8.436764e-06 0.000000e+00  
 6.216559e-05 -8.157199e-06 0.000000e+00  
 6.581383e-05 -5.803094e-06 0.000000e+00  
 6.630138e-05 -5.645195e-06 0.000000e+00  
 6.508247e-05 -6.380557e-06 0.000000e+00  
 6.543169e-05 -6.182041e-06 0.000000e+00  
 6.443834e-05 -6.863204e-06 0.000000e+00  
 6.477731e-05 -6.673941e-06 0.000000e+00  
 6.413582e-05 -7.145300e-06 0.000000e+00  
 6.379673e-05 -7.326345e-06 0.000000e+00  
 6.678659e-05 -5.489763e-06 0.000000e+00  
 5.968421e-05 -9.785563e-06 0.000000e+00  
 5.931078e-05 -1.007145e-05 0.000000e+00  
 5.890844e-05 -1.021044e-05 0.000000e+00  
 5.847137e-05 -1.062855e-05 0.000000e+00  
 6.039084e-05 -9.378552e-06 0.000000e+00  
 6.001584e-05 -9.671396e-06 0.000000e+00  
 6.074241e-05 -9.255097e-06 0.000000e+00  
 6.107324e-05 -8.997061e-06 0.000000e+00  
 6.303853e-05 -7.809447e-06 0.000000e+00  
 6.347826e-05 -7.617268e-06 0.000000e+00  
 6.145045e-05 -8.858171e-06 0.000000e+00  
 6.179467e-05 -8.580817e-06 0.000000e+00  
 6.253819e-05 -8.110790e-06 0.000000e+00  
 6.281583e-05 -7.980251e-06 0.000000e+00  
 6.213192e-05 -8.439082e-06 0.000000e+00  
 6.556220e-05 -6.241948e-06 0.000000e+00  
 6.589570e-05 -6.057214e-06 0.000000e+00  
 6.603558e-05 -6.106809e-06 0.000000e+00  
 6.637403e-05 -5.922331e-06 0.000000e+00  
 6.522179e-05 -6.573759e-06 0.000000e+00  
 6.489665e-05 -6.749670e-06 0.000000e+00  
 6.456271e-05 -7.062370e-06 0.000000e+00  
 6.421738e-05 -7.240950e-06 0.000000e+00  
 6.389798e-05 -7.529786e-06 0.000000e+00  
 6.347696e-05 -7.725537e-06 0.000000e+00  
 6.728079e-05 -5.334540e-06 0.000000e+00  
 6.779014e-05 -5.179973e-06 0.000000e+00  
 6.652274e-05 -5.971182e-06 0.000000e+00  
 6.686622e-05 -5.786037e-06 0.000000e+00  
 5.994601e-05 -9.818017e-06 0.000000e+00  
 5.958735e-05 -1.010371e-05 0.000000e+00  
 5.921921e-05 -1.024863e-05 0.000000e+00  
 5.884613e-05 -1.053838e-05 0.000000e+00  
 5.880316e-05 -1.060178e-05 0.000000e+00  
 5.826389e-05 -1.101400e-05 0.000000e+00  
 5.795134e-05 -1.112104e-05 0.000000e+00  
 6.065608e-05 -9.415146e-06 0.000000e+00  
 6.031437e-05 -9.684072e-06 0.000000e+00  
 6.137550e-05 -9.011029e-06 0.000000e+00  
 6.102901e-05 -9.283243e-06 0.000000e+00  
 6.276917e-05 -8.184623e-06 0.000000e+00  
 6.317399e-05 -7.995264e-06 0.000000e+00  
 6.210664e-05 -8.597664e-06 0.000000e+00  
 6.175419e-05 -8.876196e-06 0.000000e+00  
 6.244875e-05 -8.445808e-06 0.000000e+00  
 6.535527e-05 -6.639691e-06 0.000000e+00  
 6.568109e-05 -6.466560e-06 0.000000e+00  
 6.582821e-05 -6.516169e-06 0.000000e+00  
 6.617609e-05 -6.333899e-06 0.000000e+00  
 6.501006e-05 -6.969384e-06 0.000000e+00  
 6.465750e-05 -7.151998e-06 0.000000e+00  
 6.434858e-05 -7.436792e-06 0.000000e+00  
 6.391528e-05 -7.653769e-06 0.000000e+00  
 6.317899e-05 -8.119031e-06 0.000000e+00  
 6.368507e-05 -7.860347e-06 0.000000e+00  
 6.832978e-05 -5.026757e-06 0.000000e+00  
 6.703324e-05 -5.836938e-06 0.000000e+00  
 6.737681e-05 -5.655625e-06 0.000000e+00  
 6.756640e-05 -5.707914e-06 0.000000e+00  
 6.792755e-05 -5.527007e-06 0.000000e+00  
 6.668675e-05 -6.206612e-06 0.000000e+00  
 6.633560e-05 -6.389372e-06 0.000000e+00  
 6.023488e-05 -9.837405e-06 0.000000e+00  
 5.952948e-05 -1.025282e-05 0.000000e+00  
 5.993852e-05 -1.007186e-05 0.000000e+00  
 5.923852e-05 -1.049247e-05 0.000000e+00  
 5.899425e-05 -1.062949e-05 0.000000e+00  
 5.867394e-05 -1.091026e-05 0.000000e+00  
 5.825269e-05 -1.113116e-05 0.000000e+00  
 5.807715e-05 -1.128727e-05 0.000000e+00  
 5.768395e-05 -1.152897e-05 0.000000e+00  
 5.744632e-05 -1.159405e-05 0.000000e+00  
 6.060441e-05 -9.697804e-06 0.000000e+00  
 6.093815e-05 -9.448920e-06 0.000000e+00  
 6.166847e-05 -9.040261e-06 0.000000e+00  
 6.123290e-05 -9.352322e-06 0.000000e+00  
 6.244222e-05 -8.600833e-06 0.000000e+00  
 6.297553e-05 -8.308786e-06 0.000000e+00  
 6.231179e-05 -8.721230e-06 0.000000e+00  
 6.189185e-05 -8.985652e-06 0.000000e+00  
 6.547371e-05 -6.875149e-06 0.000000e+00  
 6.513341e-05 -7.048215e-06 0.000000e+00  
 6.561407e-05 -6.916474e-06 0.000000e+00  
 6.602207e-05 -6.707425e-06 0.000000e+00  
 6.300040e-05 -8.423944e-06 0.000000e+00  
 6.479454e-05 -7.357006e-06 0.000000e+00  
 6.440782e-05 -7.549387e-06 0.000000e+00  
 6.411298e-05 -7.808779e-06 0.000000e+00  
 6.367381e-05 -8.019235e-06 0.000000e+00  
 6.343197e-05 -8.221618e-06 0.000000e+00  
 6.893232e-05 -4.882593e-06 0.000000e+00  
 6.977529e-05 -4.793813e-06 0.000000e+00  
 6.814301e-05 -5.590929e-06 0.000000e+00  
 6.854973e-05 -5.409006e-06 0.000000e+00  
 6.721154e-05 -6.097000e-06 0.000000e+00  
 6.688628e-05 -6.259503e-06 0.000000e+00  
 6.743789e-05 -6.126062e-06 0.000000e+00  
 6.780095e-05 -5.956969e-06 0.000000e+00  
 6.617076e-05 -6.779591e-06 0.000000e+00  
 6.655442e-05 -6.580812e-06 0.000000e+00  
 7.072493e-05 -4.751973e-06 0.000000e+00  
 7.032358e-05 -4.763489e-06 0.000000e+00  
 7.094909e-05 -4.733542e-06 0.000000e+00  
 7.092417e-05 -4.636085e-06 0.000000e+00  
 6.047240e-05 -9.910619e-06 0.000000e+00  
 5.986685e-05 -1.023633e-05 0.000000e+00  
 6.022085e-05 -1.009062e-05 0.000000e+00  
 5.933129e-05 -1.060073e-05 0.000000e+00  
 5.953310e-05 -1.049562e-05 0.000000e+00  
 5.897054e-05 -1.088435e-05 0.000000e+00  
 5.871417e-05 -1.101104e-05 0.000000e+00  
 5.834870e-05 -1.129967e-05 0.000000e+00  
 5.814418e-05 -1.140173e-05 0.000000e+00  
 5.777630e-05 -1.168009e-05 0.000000e+00  
 5.749626e-05 -1.179377e-05 0.000000e+00  
 5.722848e-05 -1.197797e-05 0.000000e+00  
 5.690521e-05 -1.209416e-05 0.000000e+00  
 6.078838e-05 -9.793063e-06 0.000000e+00  
 6.112516e-05 -9.550480e-06 0.000000e+00  
 6.144759e-05 -9.432493e-06 0.000000e+00  
 6.168884e-05 -9.262903e-06 0.000000e+00  
 6.264755e-05 -8.732300e-06 0.000000e+00  
 6.240461e-05 -8.856586e-06 0.000000e+00  
 6.206677e-05 -9.116386e-06 0.000000e+00  
 6.276661e-05 -8.775401e-06 0.000000e+00  
 6.593017e-05 -7.007573e-06 0.000000e+00  
 6.489410e-05 -7.459015e-06 0.000000e+00  
 6.528853e-05 -7.258221e-06 0.000000e+00  
 6.541407e-05 -7.275598e-06 0.000000e+00  
 6.461932e-05 -7.698203e-06 0.000000e+00  
 6.337991e-05 -8.415709e-06 0.000000e+00  
 6.413741e-05 -7.940831e-06 0.000000e+00  
 6.394475e-05 -8.109716e-06 0.000000e+00  
 6.880392e-05 -5.479005e-06 0.000000e+00  
 6.925521e-05 -5.277551e-06 0.000000e+00  
 6.944217e-05 -5.328505e-06 0.000000e+00  
 6.970906e-05 -5.212465e-06 0.000000e+00  
 6.845821e-05 -5.781882e-06 0.000000e+00  
 6.802898e-05 -5.990640e-06 0.000000e+00  
 6.777184e-05 -6.224380e-06 0.000000e+00  
 6.677779e-05 -6.637055e-06 0.000000e+00  
 6.704556e-05 -6.508750e-06 0.000000e+00  
 6.725519e-05 -6.494376e-06 0.000000e+00  
 6.638958e-05 -6.944265e-06 0.000000e+00  
 6.600830e-05 -7.111415e-06 0.000000e+00  
 7.042155e-05 -4.866674e-06 0.000000e+00  
 7.043777e-05 -4.912013e-06 0.000000e+00  
 7.018977e-05 -5.055563e-06 0.000000e+00  
 6.982892e-05 -5.228497e-06 0.000000e+00  
 7.012877e-05 -5.078337e-06 0.000000e+00  
 7.038278e-05 -4.905737e-06 0.000000e+00  
 7.107298e-05 -4.520492e-06 0.000000e+00  
 7.039812e-05 -4.899067e-06 0.000000e+00  
 7.072040e-05 -4.710973e-06 0.000000e+00  
 6.067661e-05 -9.989377e-06 0.000000e+00  
 6.019863e-05 -1.031504e-05 0.000000e+00  
 6.003574e-05 -1.035134e-05 0.000000e+00  
 5.961501e-05 -1.060670e-05 0.000000e+00  
 5.941564e-05 -1.078358e-05 0.000000e+00  
 5.900134e-05 -1.099960e-05 0.000000e+00  
 5.868954e-05 -1.125912e-05 0.000000e+00  
 5.839668e-05 -1.140393e-05 0.000000e+00  
 5.802737e-05 -1.169518e-05 0.000000e+00  
 5.772384e-05 -1.182516e-05 0.000000e+00  
 5.737760e-05 -1.208484e-05 0.000000e+00  
 5.707116e-05 -1.220334e-05 0.000000e+00  
 5.678692e-05 -1.240364e-05 0.000000e+00  
 5.642727e-05 -1.253060e-05 0.000000e+00  
 6.091643e-05 -9.920955e-06 0.000000e+00  
 6.129086e-05 -9.663753e-06 0.000000e+00  
 6.198147e-05 -9.289237e-06 0.000000e+00  
 6.157822e-05 -9.574156e-06 0.000000e+00  
 6.227127e-05 -9.195247e-06 0.000000e+00  
 6.256362e-05 -9.001812e-06 0.000000e+00  
 6.288561e-05 -8.923336e-06 0.000000e+00  
 6.326074e-05 -8.658385e-06 0.000000e+00  
 6.517141e-05 -7.571885e-06 0.000000e+00  
 6.564487e-05 -7.395262e-06 0.000000e+00  
 6.498406e-05 -7.699001e-06 0.000000e+00  
 6.465419e-05 -7.836243e-06 0.000000e+00  
 6.424214e-05 -8.140019e-06 0.000000e+00  
 6.357199e-05 -8.543592e-06 0.000000e+00  
 6.395641e-05 -8.261391e-06 0.000000e+00  
 6.884281e-05 -5.734138e-06 0.000000e+00  
 6.872045e-05 -5.791907e-06 0.000000e+00  
 6.938429e-05 -5.513280e-06 0.000000e+00  
 6.902242e-05 -5.711426e-06 0.000000e+00  
 6.809530e-05 -6.194435e-06 0.000000e+00  
 6.796463e-05 -6.255923e-06 0.000000e+00  
 6.704338e-05 -6.744280e-06 0.000000e+00  
 6.744429e-05 -6.594337e-06 0.000000e+00  
 6.644298e-05 -7.052986e-06 0.000000e+00  
 6.673974e-05 -6.934943e-06 0.000000e+00  
 6.595377e-05 -7.389865e-06 0.000000e+00  
 6.561963e-05 -7.512476e-06 0.000000e+00  
 6.984398e-05 -5.260972e-06 0.000000e+00  
 6.977061e-05 -5.307870e-06 0.000000e+00  
 6.945543e-05 -5.505662e-06 0.000000e+00  
 6.967370e-05 -5.390894e-06 0.000000e+00  
 6.981321e-05 -5.316696e-06 0.000000e+00  
 7.012809e-05 -5.104280e-06 0.000000e+00  
 7.075208e-05 -4.708437e-06 0.000000e+00  
 7.110617e-05 -4.501342e-06 0.000000e+00  
 7.137269e-05 -4.334933e-06 0.000000e+00  
 7.028032e-05 -5.032358e-06 0.000000e+00  
 7.052610e-05 -4.872517e-06 0.000000e+00  
 5.872883e-05 -1.134448e-05 0.000000e+00  
 6.078716e-05 -1.011278e-05 0.000000e+00  
 6.011096e-05 -1.047027e-05 0.000000e+00  
 6.044074e-05 -1.035720e-05 0.000000e+00  
 5.942802e-05 -1.088230e-05 0.000000e+00  
 5.973928e-05 -1.074925e-05 0.000000e+00  
 5.902360e-05 -1.120607e-05 0.000000e+00  
 5.832182e-05 -1.167544e-05 0.000000e+00  
 5.800925e-05 -1.180741e-05 0.000000e+00  
 5.760762e-05 -1.211578e-05 0.000000e+00  
 5.730142e-05 -1.223419e-05 0.000000e+00  
 5.832621e-05 -1.174559e-05 0.000000e+00  
 5.693938e-05 -1.250091e-05 0.000000e+00  
 5.662364e-05 -1.262055e-05 0.000000e+00  
 5.636162e-05 -1.280460e-05 0.000000e+00  
 5.597623e-05 -1.293813e-05 0.000000e+00  
 6.109850e-05 -1.001582e-05 0.000000e+00  
 6.146311e-05 -9.760351e-06 0.000000e+00  
 6.176807e-05 -9.658694e-06 0.000000e+00  
 6.208400e-05 -9.446486e-06 0.000000e+00  
 6.240365e-05 -9.342502e-06 0.000000e+00  
 6.277598e-05 -9.080572e-06 0.000000e+00  
 6.310875e-05 -8.982586e-06 0.000000e+00  
 6.351102e-05 -8.697766e-06 0.000000e+00  
 6.519335e-05 -7.815037e-06 0.000000e+00  
 6.485710e-05 -7.944662e-06 0.000000e+00  
 6.381174e-05 -8.589428e-06 0.000000e+00  
 6.448795e-05 -8.192417e-06 0.000000e+00  
 6.424312e-05 -8.290939e-06 0.000000e+00  
 6.229927e-05 -9.505831e-06 0.000000e+00  
 6.914715e-05 -5.714258e-06 0.000000e+00  
 6.663126e-05 -7.130927e-06 0.000000e+00  
 6.824126e-05 -6.208128e-06 0.000000e+00  
 6.856767e-05 -6.031501e-06 0.000000e+00  
 6.863279e-05 -6.019884e-06 0.000000e+00  
 6.776886e-05 -6.532430e-06 0.000000e+00  
 6.738267e-05 -6.718459e-06 0.000000e+00  
 6.702798e-05 -6.957259e-06 0.000000e+00  
 6.515752e-05 -7.947442e-06 0.000000e+00  
 6.592368e-05 -7.514337e-06 0.000000e+00  
 6.625102e-05 -7.383316e-06 0.000000e+00  
 6.546871e-05 -7.826616e-06 0.000000e+00  
 6.922220e-05 -5.704828e-06 0.000000e+00  
 6.908762e-05 -5.783754e-06 0.000000e+00  
 6.908235e-05 -5.842700e-06 0.000000e+00  
 6.958664e-05 -5.512887e-06 0.000000e+00  
 6.928657e-05 -5.727464e-06 0.000000e+00  
 7.008490e-05 -5.203896e-06 0.000000e+00  
 6.980895e-05 -5.399021e-06 0.000000e+00  
 7.074506e-05 -4.777342e-06 0.000000e+00  
 7.107927e-05 -4.549335e-06 0.000000e+00  
 7.135185e-05 -4.394981e-06 0.000000e+00  
 7.171444e-05 -4.146564e-06 0.000000e+00  
 7.069491e-05 -4.827554e-06 0.000000e+00  
 7.032766e-05 -5.090487e-06 0.000000e+00  
 6.097284e-05 -1.019270e-05 0.000000e+00  
 5.905808e-05 -1.129991e-05 0.000000e+00  
 5.869758e-05 -1.158759e-05 0.000000e+00  
 6.059316e-05 -1.045570e-05 0.000000e+00  
 6.029967e-05 -1.056354e-05 0.000000e+00  
 6.003528e-05 -1.074685e-05 0.000000e+00  
 5.969838e-05 -1.088583e-05 0.000000e+00  
 5.933586e-05 -1.116409e-05 0.000000e+00  
 5.867339e-05 -1.167696e-05 0.000000e+00  
 5.756675e-05 -1.222939e-05 0.000000e+00  
 5.790647e-05 -1.209641e-05 0.000000e+00  
 5.716330e-05 -1.253545e-05 0.000000e+00  
 5.684890e-05 -1.266145e-05 0.000000e+00  
 5.830967e-05 -1.197604e-05 0.000000e+00  
 5.790677e-05 -1.213973e-05 0.000000e+00  
 5.649216e-05 -1.292143e-05 0.000000e+00  
 5.616672e-05 -1.303261e-05 0.000000e+00  
 5.593339e-05 -1.319235e-05 0.000000e+00  
 5.554397e-05 -1.332490e-05 0.000000e+00  
 5.513796e-05 -1.368489e-05 0.000000e+00  
 5.639454e-05 -1.306084e-05 0.000000e+00  
 6.159124e-05 -9.899225e-06 0.000000e+00  
 6.127422e-05 -1.010953e-05 0.000000e+00  
 6.188782e-05 -9.796547e-06 0.000000e+00  
 6.300888e-05 -9.135013e-06 0.000000e+00  
 6.262377e-05 -9.404050e-06 0.000000e+00  
 6.333692e-05 -9.030799e-06 0.000000e+00  
 6.372906e-05 -8.764106e-06 0.000000e+00  
 6.469111e-05 -8.271951e-06 0.000000e+00  
 6.443316e-05 -8.376906e-06 0.000000e+00  
 6.401611e-05 -8.655875e-06 0.000000e+00  
 6.181761e-05 -9.938730e-06 0.000000e+00  
 6.250952e-05 -9.565437e-06 0.000000e+00  
 6.214470e-05 -9.815148e-06 0.000000e+00  
 6.851016e-05 -6.181958e-06 0.000000e+00  
 6.833765e-05 -6.254850e-06 0.000000e+00  
 6.617196e-05 -7.526211e-06 0.000000e+00  
 6.692814e-05 -7.102799e-06 0.000000e+00  
 6.644863e-05 -7.412881e-06 0.000000e+00  
 6.777266e-05 -6.608076e-06 0.000000e+00  
 6.711668e-05 -7.024561e-06 0.000000e+00  
 6.468442e-05 -8.386750e-06 0.000000e+00  
 6.496377e-05 -8.266668e-06 0.000000e+00  
 6.542143e-05 -7.954260e-06 0.000000e+00  
 6.570260e-05 -7.841446e-06 0.000000e+00  
 6.564517e-05 -7.956422e-06 0.000000e+00  
 6.840509e-05 -6.281491e-06 0.000000e+00  
 6.863848e-05 -6.163474e-06 0.000000e+00  
 6.852170e-05 -6.283054e-06 0.000000e+00  
 7.024262e-05 -5.185053e-06 0.000000e+00  
 6.909329e-05 -5.919266e-06 0.000000e+00  
 6.877164e-05 -6.153697e-06 0.000000e+00  
 6.964306e-05 -5.562799e-06 0.000000e+00  
 6.932041e-05 -5.800054e-06 0.000000e+00  
 6.988497e-05 -5.447845e-06 0.000000e+00  
 7.095754e-05 -4.715095e-06 0.000000e+00  
 7.134607e-05 -4.433723e-06 0.000000e+00  
 7.164172e-05 -4.270284e-06 0.000000e+00  
 7.206029e-05 -3.969090e-06 0.000000e+00  
 7.238745e-05 -3.807268e-06 0.000000e+00  
 7.092889e-05 -4.752405e-06 0.000000e+00  
 7.046909e-05 -5.085000e-06 0.000000e+00  
 7.108852e-05 -4.691766e-06 0.000000e+00  
 6.109522e-05 -1.031144e-05 0.000000e+00  
 6.047558e-05 -1.066475e-05 0.000000e+00  
 6.054770e-05 -1.064654e-05 0.000000e+00  
 5.994183e-05 -1.098647e-05 0.000000e+00  
 5.912717e-05 -1.148616e-05 0.000000e+00  
 5.938048e-05 -1.126901e-05 0.000000e+00  
 5.984505e-05 -1.100305e-05 0.000000e+00  
 5.910776e-05 -1.153981e-05 0.000000e+00  
 5.829524e-05 -1.204575e-05 0.000000e+00  
 5.872772e-05 -1.184991e-05 0.000000e+00  
 5.749800e-05 -1.249302e-05 0.000000e+00  
 5.711968e-05 -1.265872e-05 0.000000e+00  
 5.671205e-05 -1.297070e-05 0.000000e+00  
 5.751503e-05 -1.253911e-05 0.000000e+00  
 5.800456e-05 -1.229310e-05 0.000000e+00  
 5.594649e-05 -1.338217e-05 0.000000e+00  
 5.568630e-05 -1.345307e-05 0.000000e+00  
 5.548355e-05 -1.358243e-05 0.000000e+00  
 5.512419e-05 -1.391251e-05 0.000000e+00  
 5.469756e-05 -1.407169e-05 0.000000e+00  
 5.587715e-05 -1.348718e-05 0.000000e+00  
 5.667156e-05 -1.303208e-05 0.000000e+00  
 5.613503e-05 -1.342771e-05 0.000000e+00  
 6.125780e-05 -1.032000e-05 0.000000e+00  
 6.138733e-05 -1.025539e-05 0.000000e+00  
 6.280720e-05 -9.476008e-06 0.000000e+00  
 6.320517e-05 -9.210727e-06 0.000000e+00  
 6.350108e-05 -9.118318e-06 0.000000e+00  
 6.418923e-05 -8.740638e-06 0.000000e+00  
 6.391412e-05 -8.847326e-06 0.000000e+00  
 6.150051e-05 -1.031553e-05 0.000000e+00  
 6.198993e-05 -1.004533e-05 0.000000e+00  
 6.205089e-05 -1.003477e-05 0.000000e+00  
 6.266324e-05 -9.657766e-06 0.000000e+00  
 6.198242e-05 -1.015687e-05 0.000000e+00  
 6.417808e-05 -8.817319e-06 0.000000e+00  
 6.792870e-05 -6.617969e-06 0.000000e+00  
 6.772129e-05 -6.727751e-06 0.000000e+00  
 6.631283e-05 -7.591305e-06 0.000000e+00  
 6.595964e-05 -7.824568e-06 0.000000e+00  
 6.655591e-05 -7.478653e-06 0.000000e+00  
 6.700617e-05 -7.179410e-06 0.000000e+00  
 6.720365e-05 -7.083949e-06 0.000000e+00  
 6.492306e-05 -8.414671e-06 0.000000e+00  
 6.463617e-05 -8.614025e-06 0.000000e+00  
 6.516758e-05 -8.293456e-06 0.000000e+00  
 6.525588e-05 -8.349904e-06 0.000000e+00  
 6.577373e-05 -8.023541e-06 0.000000e+00  
 6.810212e-05 -6.592602e-06 0.000000e+00  
 6.785864e-05 -6.720333e-06 0.000000e+00  
 6.802103e-05 -6.694688e-06 0.000000e+00  
 6.857650e-05 -6.351505e-06 0.000000e+00  
 6.830692e-05 -6.547262e-06 0.000000e+00  
 7.040427e-05 -5.174705e-06 0.000000e+00  
 7.000306e-05 -5.474231e-06 0.000000e+00  
 6.977099e-05 -5.579147e-06 0.000000e+00  
 6.881895e-05 -6.230294e-06 0.000000e+00  
 6.918830e-05 -5.950661e-06 0.000000e+00  
 6.943727e-05 -5.827120e-06 0.000000e+00  
 6.873341e-05 -6.340630e-06 0.000000e+00  
 7.163998e-05 -4.325267e-06 0.000000e+00  
 7.206921e-05 -4.058560e-06 0.000000e+00  
 7.217057e-05 -4.043576e-06 0.000000e+00  
 7.256977e-05 -3.792134e-06 0.000000e+00  
 7.280986e-05 -3.604156e-06 0.000000e+00  
 7.063330e-05 -5.072154e-06 0.000000e+00  
 7.097959e-05 -4.824030e-06 0.000000e+00  