# vtk DataFile Version 1.0 
PolyMesh 
ASCII 
 
DATASET POLYDATA 
 
POINTS 2989 float 
5.000000e+00 2.000000e+00 0.000000e+00  
 5.000000e+00 1.878326e+00 0.000000e+00  
 4.883848e+00 1.893155e+00 0.000000e+00  
 4.883187e+00 2.000000e+00 0.000000e+00  
 5.000000e+00 1.778265e+00 0.000000e+00  
 4.899117e+00 1.763092e+00 0.000000e+00  
 4.846420e+00 1.831389e+00 0.000000e+00  
 4.849752e+00 1.861276e+00 0.000000e+00  
 4.754724e+00 1.920192e+00 0.000000e+00  
 4.757774e+00 2.000000e+00 0.000000e+00  
 4.875958e+00 1.699612e+00 0.000000e+00  
 4.925007e+00 1.639682e+00 0.000000e+00  
 5.000000e+00 1.641860e+00 0.000000e+00  
 4.804218e+00 1.683279e+00 0.000000e+00  
 4.756743e+00 1.726001e+00 0.000000e+00  
 4.758092e+00 1.775958e+00 0.000000e+00  
 4.691427e+00 1.831601e+00 0.000000e+00  
 4.691888e+00 1.870228e+00 0.000000e+00  
 4.616875e+00 1.924207e+00 0.000000e+00  
 4.616409e+00 2.000000e+00 0.000000e+00  
 4.790010e+00 1.609712e+00 0.000000e+00  
 4.841870e+00 1.562505e+00 0.000000e+00  
 4.879821e+00 1.564581e+00 0.000000e+00  
 4.930950e+00 1.505801e+00 0.000000e+00  
 5.000000e+00 1.506307e+00 0.000000e+00  
 5.000000e+00 1.373995e+00 0.000000e+00  
 5.000000e+00 1.259173e+00 0.000000e+00  
 4.717288e+00 1.586099e+00 0.000000e+00  
 4.675383e+00 1.685599e+00 0.000000e+00  
 4.685576e+00 1.602375e+00 0.000000e+00  
 4.627729e+00 1.713002e+00 0.000000e+00  
 4.620683e+00 1.778685e+00 0.000000e+00  
 4.478583e+00 2.000000e+00 0.000000e+00  
 4.549992e+00 1.816246e+00 0.000000e+00  
 4.544855e+00 1.871032e+00 0.000000e+00  
 4.479098e+00 1.912301e+00 0.000000e+00  
 4.342987e+00 2.000000e+00 0.000000e+00  
 4.793628e+00 1.476093e+00 0.000000e+00  
 4.731718e+00 1.488087e+00 0.000000e+00  
 4.818277e+00 1.439544e+00 0.000000e+00  
 4.884368e+00 1.431207e+00 0.000000e+00  
 4.915993e+00 1.378939e+00 0.000000e+00  
 4.875445e+00 1.311899e+00 0.000000e+00  
 4.896980e+00 1.258458e+00 0.000000e+00  
 4.875550e+00 1.217525e+00 0.000000e+00  
 4.911356e+00 1.144975e+00 0.000000e+00  
 5.000000e+00 1.140258e+00 0.000000e+00  
 5.000000e+00 1.031160e+00 0.000000e+00  
 5.000000e+00 9.293887e-01 0.000000e+00  
 4.690155e+00 1.459231e+00 0.000000e+00  
 4.630336e+00 1.475590e+00 0.000000e+00  
 4.614606e+00 1.568116e+00 0.000000e+00  
 4.551524e+00 1.666688e+00 0.000000e+00  
 4.577495e+00 1.582921e+00 0.000000e+00  
 4.486579e+00 1.761772e+00 0.000000e+00  
 4.522925e+00 1.677226e+00 0.000000e+00  
 4.406023e+00 1.867945e+00 0.000000e+00  
 4.340624e+00 1.929335e+00 0.000000e+00  
 4.449290e+00 1.768714e+00 0.000000e+00  
 4.401848e+00 1.837602e+00 0.000000e+00  
 4.204086e+00 2.000000e+00 0.000000e+00  
 4.260543e+00 1.879405e+00 0.000000e+00  
 4.205424e+00 1.918358e+00 0.000000e+00  
 4.701395e+00 1.369154e+00 0.000000e+00  
 4.772416e+00 1.342987e+00 0.000000e+00  
 4.778021e+00 1.332660e+00 0.000000e+00  
 4.753830e+00 1.243838e+00 0.000000e+00  
 4.797118e+00 1.202383e+00 0.000000e+00  
 4.781696e+00 1.120489e+00 0.000000e+00  
 4.876759e+00 1.033790e+00 0.000000e+00  
 4.865492e+00 1.081836e+00 0.000000e+00  
 5.000000e+00 8.134757e-01 0.000000e+00  
 4.862905e+00 1.006627e+00 0.000000e+00  
 4.893852e+00 9.226793e-01 0.000000e+00  
 4.873074e+00 8.858893e-01 0.000000e+00  
 4.906798e+00 8.122355e-01 0.000000e+00  
 4.642112e+00 1.334049e+00 0.000000e+00  
 4.582391e+00 1.443263e+00 0.000000e+00  
 4.587076e+00 1.367604e+00 0.000000e+00  
 4.503472e+00 1.533968e+00 0.000000e+00  
 4.522415e+00 1.465895e+00 0.000000e+00  
 4.461529e+00 1.551359e+00 0.000000e+00  
 4.438989e+00 1.623232e+00 0.000000e+00  
 4.400366e+00 1.641170e+00 0.000000e+00  
 4.265777e+00 1.819646e+00 0.000000e+00  
 4.382185e+00 1.698066e+00 0.000000e+00  
 4.308525e+00 1.789719e+00 0.000000e+00  
 4.318555e+00 1.725218e+00 0.000000e+00  
 4.134418e+00 1.877948e+00 0.000000e+00  
 4.074738e+00 1.916793e+00 0.000000e+00  
 4.073574e+00 2.000000e+00 0.000000e+00  
 4.134738e+00 1.806570e+00 0.000000e+00  
 4.184634e+00 1.774594e+00 0.000000e+00  
 4.640429e+00 1.264248e+00 0.000000e+00  
 4.684338e+00 1.227748e+00 0.000000e+00  
 4.563029e+00 1.234239e+00 0.000000e+00  
 4.736445e+00 1.096816e+00 0.000000e+00  
 4.670163e+00 1.147728e+00 0.000000e+00  
 4.767575e+00 9.853705e-01 0.000000e+00  
 4.724918e+00 1.039982e+00 0.000000e+00  
 5.000000e+00 6.963576e-01 0.000000e+00  
 4.875193e+00 7.620073e-01 0.000000e+00  
 4.909958e+00 6.955670e-01 0.000000e+00  
 4.752417e+00 9.265084e-01 0.000000e+00  
 4.789555e+00 8.752306e-01 0.000000e+00  
 4.808915e+00 7.605302e-01 0.000000e+00  
 4.770525e+00 8.191137e-01 0.000000e+00  
 4.500906e+00 1.296402e+00 0.000000e+00  
 4.509358e+00 1.329118e+00 0.000000e+00  
 4.456332e+00 1.407574e+00 0.000000e+00  
 4.425944e+00 1.412025e+00 0.000000e+00  
 4.389093e+00 1.497304e+00 0.000000e+00  
 4.345393e+00 1.509658e+00 0.000000e+00  
 4.322547e+00 1.584244e+00 0.000000e+00  
 4.192598e+00 1.702575e+00 0.000000e+00  
 4.278248e+00 1.603502e+00 0.000000e+00  
 4.262283e+00 1.678629e+00 0.000000e+00  
 4.151851e+00 1.668172e+00 0.000000e+00  
 4.067133e+00 1.774553e+00 0.000000e+00  
 4.004317e+00 1.826192e+00 0.000000e+00  
 4.003970e+00 1.873136e+00 0.000000e+00  
 3.946842e+00 1.914211e+00 0.000000e+00  
 3.946567e+00 2.000000e+00 0.000000e+00  
 4.071014e+00 1.681905e+00 0.000000e+00  
 4.055099e+00 1.707302e+00 0.000000e+00  
 4.442461e+00 1.267024e+00 0.000000e+00  
 4.549969e+00 1.172782e+00 0.000000e+00  
 4.604270e+00 1.123110e+00 0.000000e+00  
 4.480922e+00 1.149871e+00 0.000000e+00  
 4.433329e+00 1.194734e+00 0.000000e+00  
 4.637028e+00 1.011859e+00 0.000000e+00  
 4.592126e+00 1.057127e+00 0.000000e+00  
 4.628028e+00 9.415764e-01 0.000000e+00  
 4.663220e+00 9.080190e-01 0.000000e+00  
 5.000000e+00 5.781032e-01 0.000000e+00  
 4.877923e+00 6.420888e-01 0.000000e+00  
 4.910069e+00 5.771986e-01 0.000000e+00  
 4.798473e+00 6.424786e-01 0.000000e+00  
 4.773355e+00 6.990459e-01 0.000000e+00  
 4.656179e+00 8.189674e-01 0.000000e+00  
 4.680381e+00 8.002315e-01 0.000000e+00  
 4.689165e+00 7.094383e-01 0.000000e+00  
 4.367644e+00 1.363211e+00 0.000000e+00  
 4.375285e+00 1.304607e+00 0.000000e+00  
 4.301085e+00 1.390638e+00 0.000000e+00  
 4.289402e+00 1.462682e+00 0.000000e+00  
 4.216430e+00 1.486840e+00 0.000000e+00  
 4.202097e+00 1.555511e+00 0.000000e+00  
 4.165279e+00 1.574842e+00 0.000000e+00  
 3.823471e+00 2.000000e+00 0.000000e+00  
 4.088790e+00 1.546738e+00 0.000000e+00  
 4.039186e+00 1.599977e+00 0.000000e+00  
 3.928184e+00 1.772544e+00 0.000000e+00  
 3.945129e+00 1.704561e+00 0.000000e+00  
 3.880483e+00 1.797546e+00 0.000000e+00  
 3.871944e+00 1.875461e+00 0.000000e+00  
 3.825507e+00 1.902957e+00 0.000000e+00  
 3.928412e+00 1.673790e+00 0.000000e+00  
 3.973272e+00 1.590088e+00 0.000000e+00  
 4.310723e+00 1.250732e+00 0.000000e+00  
 4.344627e+00 1.167093e+00 0.000000e+00  
 4.513310e+00 1.033224e+00 0.000000e+00  
 4.465948e+00 1.085117e+00 0.000000e+00  
 4.335027e+00 1.145162e+00 0.000000e+00  
 4.390335e+00 1.064420e+00 0.000000e+00  
 4.499119e+00 9.737440e-01 0.000000e+00  
 4.545649e+00 9.189745e-01 0.000000e+00  
 4.580693e+00 8.020176e-01 0.000000e+00  
 4.530580e+00 8.629401e-01 0.000000e+00  
 5.000000e+00 4.564251e-01 0.000000e+00  
 4.878755e+00 5.264456e-01 0.000000e+00  
 4.916461e+00 4.567683e-01 0.000000e+00  
 4.771378e+00 5.954068e-01 0.000000e+00  
 4.808152e+00 5.220477e-01 0.000000e+00  
 4.655326e+00 6.756257e-01 0.000000e+00  
 4.691767e+00 5.873748e-01 0.000000e+00  
 4.609016e+00 6.777847e-01 0.000000e+00  
 4.558585e+00 7.458134e-01 0.000000e+00  
 4.259396e+00 1.264572e+00 0.000000e+00  
 4.239562e+00 1.344606e+00 0.000000e+00  
 4.170168e+00 1.439576e+00 0.000000e+00  
 4.191586e+00 1.362090e+00 0.000000e+00  
 4.072416e+00 1.479023e+00 0.000000e+00  
 4.090230e+00 1.453006e+00 0.000000e+00  
 3.708719e+00 2.000000e+00 0.000000e+00  
 3.757544e+00 1.872513e+00 0.000000e+00  
 3.704888e+00 1.908031e+00 0.000000e+00  
 3.946513e+00 1.544359e+00 0.000000e+00  
 3.981784e+00 1.476884e+00 0.000000e+00  
 3.878063e+00 1.539263e+00 0.000000e+00  
 3.853340e+00 1.655637e+00 0.000000e+00  
 3.800405e+00 1.711008e+00 0.000000e+00  
 3.803742e+00 1.755671e+00 0.000000e+00  
 3.753185e+00 1.801137e+00 0.000000e+00  
 3.834713e+00 1.591872e+00 0.000000e+00  
 4.205035e+00 1.220104e+00 0.000000e+00  
 4.203896e+00 1.168537e+00 0.000000e+00  
 4.271198e+00 1.120237e+00 0.000000e+00  
 4.369289e+00 1.013726e+00 0.000000e+00  
 4.417543e+00 9.507550e-01 0.000000e+00  
 4.304776e+00 1.000554e+00 0.000000e+00  
 4.254855e+00 1.050624e+00 0.000000e+00  
 4.402445e+00 8.996703e-01 0.000000e+00  
 4.448817e+00 8.379463e-01 0.000000e+00  
 4.435703e+00 7.919859e-01 0.000000e+00  
 4.486554e+00 7.282190e-01 0.000000e+00  
 4.468273e+00 6.780637e-01 0.000000e+00  
 5.000000e+00 3.335554e-01 0.000000e+00  
 4.876345e+00 3.991361e-01 0.000000e+00  
 4.913449e+00 3.338612e-01 0.000000e+00  
 4.779353e+00 4.767159e-01 0.000000e+00  
 4.820308e+00 4.010468e-01 0.000000e+00  
 4.709767e+00 4.689793e-01 0.000000e+00  
 4.669324e+00 5.516921e-01 0.000000e+00  
 5.000000e+00 2.111248e-01 0.000000e+00  
 5.000000e+00 8.857776e-02 0.000000e+00  
 5.000000e+00 -3.385711e-02 0.000000e+00  
 5.000000e+00 -1.500420e-01 0.000000e+00  
 5.000000e+00 -2.564109e-01 0.000000e+00  
 4.596806e+00 5.407710e-01 0.000000e+00  
 4.544906e+00 6.009736e-01 0.000000e+00  
 4.532111e+00 6.016760e-01 0.000000e+00  
 5.000000e+00 -3.659757e-01 0.000000e+00  
 5.000000e+00 -4.700771e-01 0.000000e+00  
 5.000000e+00 -5.827711e-01 0.000000e+00  
 5.000000e+00 -6.968920e-01 0.000000e+00  
 4.117581e+00 1.268987e+00 0.000000e+00  
 4.118648e+00 1.311616e+00 0.000000e+00  
 4.060515e+00 1.362989e+00 0.000000e+00  
 3.989690e+00 1.349385e+00 0.000000e+00  
 3.952617e+00 1.423215e+00 0.000000e+00  
 3.643223e+00 1.881518e+00 0.000000e+00  
 3.587526e+00 1.917232e+00 0.000000e+00  
 3.586612e+00 2.000000e+00 0.000000e+00  
 3.661642e+00 1.769768e+00 0.000000e+00  
[...]
 POINT_DATA 2989 
 VECTORS Displacement float 
 2.188763e-05 -1.737522e-06 0.000000e+00  
 2.189305e-05 -1.615625e-06 0.000000e+00  
 2.150516e-05 -1.636211e-06 0.000000e+00  
 2.149846e-05 -1.743046e-06 0.000000e+00  
 2.189801e-05 -1.514782e-06 0.000000e+00  
 2.156258e-05 -1.505531e-06 0.000000e+00  
 2.138310e-05 -1.576355e-06 0.000000e+00  
 2.139287e-05 -1.606039e-06 0.000000e+00  
 2.107362e-05 -1.668525e-06 0.000000e+00  
 2.108131e-05 -1.748235e-06 0.000000e+00  
 2.148949e-05 -1.443584e-06 0.000000e+00  
 2.165769e-05 -1.380933e-06 0.000000e+00  
 2.190735e-05 -1.377208e-06 0.000000e+00  
 2.125134e-05 -1.431031e-06 0.000000e+00  
 2.108973e-05 -1.475179e-06 0.000000e+00  
 2.109121e-05 -1.524629e-06 0.000000e+00  
 2.086555e-05 -1.581741e-06 0.000000e+00  
 2.086564e-05 -1.620254e-06 0.000000e+00  
 2.061347e-05 -1.674978e-06 0.000000e+00  
 2.061133e-05 -1.750966e-06 0.000000e+00  
 2.121038e-05 -1.359352e-06 0.000000e+00  
 2.138802e-05 -1.310453e-06 0.000000e+00  
 2.151427e-05 -1.309998e-06 0.000000e+00  
 2.169104e-05 -1.248267e-06 0.000000e+00  
 2.192073e-05 -1.241411e-06 0.000000e+00  
 2.193807e-05 -1.111352e-06 0.000000e+00  
 2.195621e-05 -1.001439e-06 0.000000e+00  
 2.096993e-05 -1.338773e-06 0.000000e+00  
 2.082055e-05 -1.437021e-06 0.000000e+00  
 2.086219e-05 -1.355332e-06 0.000000e+00  
 2.065882e-05 -1.464454e-06 0.000000e+00  
 2.063114e-05 -1.529515e-06 0.000000e+00  
 2.015182e-05 -1.749019e-06 0.000000e+00  
 2.039212e-05 -1.566364e-06 0.000000e+00  
 2.037325e-05 -1.621056e-06 0.000000e+00  
 2.015193e-05 -1.660775e-06 0.000000e+00  
 1.969730e-05 -1.742262e-06 0.000000e+00  
 2.123768e-05 -1.229470e-06 0.000000e+00  
 2.102975e-05 -1.243576e-06 0.000000e+00  
 2.132462e-05 -1.192951e-06 0.000000e+00  
 2.154570e-05 -1.180063e-06 0.000000e+00  
 2.165827e-05 -1.126878e-06 0.000000e+00  
 2.153436e-05 -1.067539e-06 0.000000e+00  
 2.161488e-05 -1.015454e-06 0.000000e+00  
 2.155129e-05 -9.797838e-07 0.000000e+00  
 2.168344e-05 -9.093138e-07 0.000000e+00  
 2.197737e-05 -8.909718e-07 0.000000e+00  
 2.199824e-05 -7.932871e-07 0.000000e+00  
 2.201844e-05 -7.051845e-07 0.000000e+00  
 2.089509e-05 -1.216951e-06 0.000000e+00  
 2.069297e-05 -1.232980e-06 0.000000e+00  
 2.062832e-05 -1.322136e-06 0.000000e+00  
 2.040647e-05 -1.417614e-06 0.000000e+00  
 2.050217e-05 -1.336051e-06 0.000000e+00  
 2.018103e-05 -1.509905e-06 0.000000e+00  
 2.030933e-05 -1.427241e-06 0.000000e+00  
 1.990584e-05 -1.612635e-06 0.000000e+00  
 1.968550e-05 -1.670341e-06 0.000000e+00  
 2.005481e-05 -1.515122e-06 0.000000e+00  
 1.989207e-05 -1.581793e-06 0.000000e+00  
 1.922734e-05 -1.730063e-06 0.000000e+00  
 1.941231e-05 -1.612578e-06 0.000000e+00  
 1.922526e-05 -1.646560e-06 0.000000e+00  
 2.094659e-05 -1.131494e-06 0.000000e+00  
 2.118697e-05 -1.104280e-06 0.000000e+00  
 2.120735e-05 -1.094459e-06 0.000000e+00  
 2.114301e-05 -1.013242e-06 0.000000e+00  
 2.129445e-05 -9.728249e-07 0.000000e+00  
 2.125974e-05 -9.001723e-07 0.000000e+00  
 2.159139e-05 -8.152273e-07 0.000000e+00  
 2.154444e-05 -8.583049e-07 0.000000e+00  
 2.204145e-05 -6.086582e-07 0.000000e+00  
 2.155143e-05 -7.927847e-07 0.000000e+00  
 2.167088e-05 -7.170062e-07 0.000000e+00  
 2.161027e-05 -6.885360e-07 0.000000e+00  
 2.173616e-05 -6.231458e-07 0.000000e+00  
 2.075520e-05 -1.099346e-06 0.000000e+00  
 2.053746e-05 -1.201568e-06 0.000000e+00  
 2.056582e-05 -1.130198e-06 0.000000e+00  
 2.025949e-05 -1.286051e-06 0.000000e+00  
 2.033302e-05 -1.221269e-06 0.000000e+00  
 2.011592e-05 -1.300803e-06 0.000000e+00  
 2.003130e-05 -1.369863e-06 0.000000e+00  
 1.989875e-05 -1.385001e-06 0.000000e+00  
 1.943001e-05 -1.552357e-06 0.000000e+00  
 1.983207e-05 -1.440095e-06 0.000000e+00  
 1.957657e-05 -1.526118e-06 0.000000e+00  
 1.961388e-05 -1.461995e-06 0.000000e+00  
 1.897999e-05 -1.596211e-06 0.000000e+00  
 1.877571e-05 -1.628005e-06 0.000000e+00  
 1.878048e-05 -1.714119e-06 0.000000e+00  
 1.898060e-05 -1.522943e-06 0.000000e+00  
 1.915327e-05 -1.496937e-06 0.000000e+00  
 2.076277e-05 -1.034860e-06 0.000000e+00  
 2.091573e-05 -1.000988e-06 0.000000e+00  
 2.051155e-05 -1.006309e-06 0.000000e+00  
 2.111521e-05 -8.816500e-07 0.000000e+00  
 2.088523e-05 -9.289400e-07 0.000000e+00  
 2.124202e-05 -7.827246e-07 0.000000e+00  
 2.108949e-05 -8.322416e-07 0.000000e+00  
 2.206388e-05 -5.152896e-07 0.000000e+00  
 2.164280e-05 -5.862662e-07 0.000000e+00  
 2.176967e-05 -5.289219e-07 0.000000e+00  
 2.120502e-05 -7.332672e-07 0.000000e+00  
 2.133825e-05 -6.875750e-07 0.000000e+00  
 2.142607e-05 -5.915803e-07 0.000000e+00  
 2.128793e-05 -6.423107e-07 0.000000e+00  
 2.029169e-05 -1.061043e-06 0.000000e+00  
 2.031337e-05 -1.091702e-06 0.000000e+00  
 2.012111e-05 -1.162434e-06 0.000000e+00  
 2.001812e-05 -1.164519e-06 0.000000e+00  
 1.987948e-05 -1.243323e-06 0.000000e+00  
 1.972969e-05 -1.251356e-06 0.000000e+00  
 1.964149e-05 -1.322033e-06 0.000000e+00  
 1.918482e-05 -1.424883e-06 0.000000e+00  
 1.948831e-05 -1.336311e-06 0.000000e+00  
 1.942560e-05 -1.409306e-06 0.000000e+00  
 1.904809e-05 -1.384464e-06 0.000000e+00  
 1.874749e-05 -1.479669e-06 0.000000e+00  
 1.852791e-05 -1.522620e-06 0.000000e+00  
 1.852751e-05 -1.571450e-06 0.000000e+00  
 1.832983e-05 -1.604705e-06 0.000000e+00  
 1.833957e-05 -1.694899e-06 0.000000e+00  
 1.876758e-05 -1.385423e-06 0.000000e+00  
 1.871002e-05 -1.408798e-06 0.000000e+00  
 2.010277e-05 -1.030466e-06 0.000000e+00  
 2.048149e-05 -9.504041e-07 0.000000e+00  
 2.067248e-05 -9.072096e-07 0.000000e+00  
 2.025764e-05 -9.269303e-07 0.000000e+00  
 2.008895e-05 -9.641097e-07 0.000000e+00  
 2.080601e-05 -8.098322e-07 0.000000e+00  
 2.064742e-05 -8.490070e-07 0.000000e+00  
 2.079264e-05 -7.496524e-07 0.000000e+00  
 2.091606e-05 -7.208821e-07 0.000000e+00  
 2.208476e-05 -4.249733e-07 0.000000e+00  
 2.167510e-05 -4.907694e-07 0.000000e+00  
 2.179169e-05 -4.371172e-07 0.000000e+00  
 2.141561e-05 -4.982400e-07 0.000000e+00  
 2.132235e-05 -5.447228e-07 0.000000e+00  
 2.091324e-05 -6.467705e-07 0.000000e+00  
 2.099679e-05 -6.309065e-07 0.000000e+00  
 2.104508e-05 -5.569213e-07 0.000000e+00  
 1.983169e-05 -1.113633e-06 0.000000e+00  
 1.986992e-05 -1.059563e-06 0.000000e+00  
 1.960192e-05 -1.132496e-06 0.000000e+00  
 1.954821e-05 -1.199980e-06 0.000000e+00  
 1.929591e-05 -1.214033e-06 0.000000e+00  
 1.923530e-05 -1.279317e-06 0.000000e+00  
 1.910632e-05 -1.293113e-06 0.000000e+00  
 1.790541e-05 -1.673356e-06 0.000000e+00  
 1.884834e-05 -1.252874e-06 0.000000e+00  
 1.866834e-05 -1.297129e-06 0.000000e+00  
 1.826230e-05 -1.452735e-06 0.000000e+00  
 1.832696e-05 -1.385764e-06 0.000000e+00  
 1.809310e-05 -1.469582e-06 0.000000e+00  
 1.806329e-05 -1.549991e-06 0.000000e+00  
 1.789970e-05 -1.570166e-06 0.000000e+00  
 1.827187e-05 -1.350740e-06 0.000000e+00  
 1.844145e-05 -1.274620e-06 0.000000e+00  
 1.966645e-05 -1.003457e-06 0.000000e+00  
 1.980054e-05 -9.315422e-07 0.000000e+00  
 2.039293e-05 -8.259672e-07 0.000000e+00  
 2.022370e-05 -8.688109e-07 0.000000e+00  
 1.977438e-05 -9.110254e-07 0.000000e+00  
 1.997887e-05 -8.451350e-07 0.000000e+00  
 2.036084e-05 -7.741757e-07 0.000000e+00  
 2.052730e-05 -7.294324e-07 0.000000e+00  
 2.067004e-05 -6.329179e-07 0.000000e+00  
 2.049149e-05 -6.820558e-07 0.000000e+00  
 2.210349e-05 -3.357332e-07 0.000000e+00  
 2.169813e-05 -4.018809e-07 0.000000e+00  
 2.183166e-05 -3.461333e-07 0.000000e+00  
 2.133608e-05 -4.631281e-07 0.000000e+00  
 2.146891e-05 -4.042686e-07 0.000000e+00  
 2.094182e-05 -5.306244e-07 0.000000e+00  
 2.107819e-05 -4.602798e-07 0.000000e+00  
 2.079023e-05 -5.326997e-07 0.000000e+00  
 2.061083e-05 -5.867157e-07 0.000000e+00  
 1.949097e-05 -1.009957e-06 0.000000e+00  
 1.940469e-05 -1.081544e-06 0.000000e+00  
 1.914810e-05 -1.161704e-06 0.000000e+00  
 1.923852e-05 -1.091101e-06 0.000000e+00  
 1.880563e-05 -1.183602e-06 0.000000e+00  
 1.887237e-05 -1.161304e-06 0.000000e+00  
 1.749388e-05 -1.651224e-06 0.000000e+00  
 1.765481e-05 -1.523452e-06 0.000000e+00  
 1.746676e-05 -1.550440e-06 0.000000e+00  
 1.835737e-05 -1.223365e-06 0.000000e+00  
 1.849477e-05 -1.164052e-06 0.000000e+00  
 1.812023e-05 -1.203318e-06 0.000000e+00  
 1.801066e-05 -1.315908e-06 0.000000e+00  
 1.781544e-05 -1.361471e-06 0.000000e+00  
 1.782288e-05 -1.409154e-06 0.000000e+00  
 1.763932e-05 -1.446079e-06 0.000000e+00  
 1.795669e-05 -1.246485e-06 0.000000e+00  
 1.932059e-05 -9.618128e-07 0.000000e+00  
 1.933143e-05 -9.152307e-07 0.000000e+00  
 1.956897e-05 -8.816421e-07 0.000000e+00  
 1.992283e-05 -7.995278e-07 0.000000e+00  
 2.009841e-05 -7.497784e-07 0.000000e+00  
 1.971382e-05 -7.818639e-07 0.000000e+00  
 1.953480e-05 -8.189577e-07 0.000000e+00  
 2.006237e-05 -7.058103e-07 0.000000e+00  
 2.023008e-05 -6.577668e-07 0.000000e+00  
 2.019886e-05 -6.194331e-07 0.000000e+00  
 2.038009e-05 -5.704261e-07 0.000000e+00  
 2.033231e-05 -5.297173e-07 0.000000e+00  
 2.211874e-05 -2.488295e-07 0.000000e+00  
 2.170917e-05 -3.073045e-07 0.000000e+00  
 2.183767e-05 -2.570778e-07 0.000000e+00  
 2.138250e-05 -3.715240e-07 0.000000e+00  
 2.152677e-05 -3.124590e-07 0.000000e+00  
 2.115752e-05 -3.684854e-07 0.000000e+00  
 2.101181e-05 -4.330255e-07 0.000000e+00  
 2.212969e-05 -1.646123e-07 0.000000e+00  
 2.213595e-05 -8.191759e-08 0.000000e+00  
 2.213717e-05 0.000000e+00 0.000000e+00  
 2.213364e-05 7.797063e-08 0.000000e+00  
 2.212652e-05 1.502378e-07 0.000000e+00  
 2.077820e-05 -4.251673e-07 0.000000e+00  
 2.059789e-05 -4.714002e-07 0.000000e+00  
 2.055622e-05 -4.717010e-07 0.000000e+00  
 2.211556e-05 2.263786e-07 0.000000e+00  
 2.210219e-05 3.005144e-07 0.000000e+00  
 2.208487e-05 3.834022e-07 0.000000e+00  
 2.206491e-05 4.706129e-07 0.000000e+00  
 1.901322e-05 -9.925634e-07 0.000000e+00  
 1.900481e-05 -1.032070e-06 0.000000e+00  
 1.879371e-05 -1.069985e-06 0.000000e+00  
 1.855652e-05 -1.043237e-06 0.000000e+00  
 1.840832e-05 -1.105843e-06 0.000000e+00  
 1.724073e-05 -1.507960e-06 0.000000e+00  
 1.703833e-05 -1.534687e-06 0.000000e+00  
 1.704749e-05 -1.626125e-06 0.000000e+00  
 1.731068e-05 -1.391156e-06 0.000000e+00  
 1.721081e-05 -1.415363e-06 0.000000e+00  
 1.810599e-05 -1.085135e-06 0.000000e+00  
 1.801852e-05 -1.120505e-06 0.000000e+00  
 1.768302e-05 -1.114059e-06 0.000000e+00  
 1.769655e-05 -1.209843e-06 0.000000e+00  
 1.730984e-05 -1.329173e-06 0.000000e+00  
 1.754188e-05 -1.235829e-06 0.000000e+00  
 1.752984e-05 -1.295096e-06 0.000000e+00  
 1.887232e-05 -9.473375e-07 0.000000e+00  
 1.895241e-05 -8.722690e-07 0.000000e+00  
 1.912942e-05 -8.661587e-07 0.000000e+00  
 1.925876e-05 -7.852772e-07 0.000000e+00  
 2.034366e-05 -4.246418e-07 0.000000e+00  
 1.979012e-05 -6.794167e-07 0.000000e+00  
 1.964322e-05 -7.150726e-07 0.000000e+00  
 1.941127e-05 -7.017132e-07 0.000000e+00  
 1.976598e-05 -6.283631e-07 0.000000e+00  
 1.994607e-05 -5.378281e-07 0.000000e+00  
 1.996641e-05 -5.926828e-07 0.000000e+00  
 2.013076e-05 -5.087583e-07 0.000000e+00  
 2.011360e-05 -4.514112e-07 0.000000e+00  
 2.172306e-05 -2.162850e-07 0.000000e+00  
 2.184766e-05 -1.699266e-07 0.000000e+00  
 2.137405e-05 -2.711448e-07 0.000000e+00  
 2.150960e-05 -2.195707e-07 0.000000e+00  
 2.124009e-05 -2.752273e-07 0.000000e+00  
 2.108332e-05 -3.406439e-07 0.000000e+00  
 2.071276e-05 -3.718269e-07 0.000000e+00  
 2.088901e-05 -3.333400e-07 0.000000e+00  
 2.172908e-05 -1.264611e-07 0.000000e+00  
 2.186554e-05 -8.368674e-08 0.000000e+00  
 2.174171e-05 -3.496676e-08 0.000000e+00  
 2.185109e-05 -8.626341e-11 0.000000e+00  
 2.173286e-05 5.336685e-08 0.000000e+00  
 2.183069e-05 8.109964e-08 0.000000e+00  
 2.172697e-05 1.456993e-07 0.000000e+00  
 2.179772e-05 1.605449e-07 0.000000e+00  
 2.177309e-05 2.324737e-07 0.000000e+00  
 2.036935e-05 -3.805621e-07 0.000000e+00  
 2.052111e-05 -3.588129e-07 0.000000e+00  
 2.171592e-05 2.450758e-07 0.000000e+00  
 2.178198e-05 3.123236e-07 0.000000e+00  
 2.168390e-05 3.420336e-07 0.000000e+00  
 2.177565e-05 3.965852e-07 0.000000e+00  
 2.166019e-05 4.385940e-07 0.000000e+00  
 2.175744e-05 4.872717e-07 0.000000e+00  
 2.165506e-05 5.308567e-07 0.000000e+00  
 2.176678e-05 5.810673e-07 0.000000e+00  
 2.204194e-05 5.670292e-07 0.000000e+00  
 2.201791e-05 6.686161e-07 0.000000e+00  
 2.199440e-05 7.731102e-07 0.000000e+00  
 1.861350e-05 -9.453408e-07 0.000000e+00  
 1.850835e-05 -1.009754e-06 0.000000e+00  
 1.804241e-05 -1.022733e-06 0.000000e+00  
 1.817878e-05 -9.782137e-07 0.000000e+00  
 1.686322e-05 -1.385992e-06 0.000000e+00  
 1.679104e-05 -1.476407e-06 0.000000e+00  
 1.662126e-05 -1.487392e-06 0.000000e+00  
 1.659547e-05 -1.600755e-06 0.000000e+00  
 1.622356e-05 -1.580942e-06 0.000000e+00  
 1.707985e-05 -1.269989e-06 0.000000e+00  
 1.678158e-05 -1.345953e-06 0.000000e+00  
 1.683968e-05 -1.284567e-06 0.000000e+00  
 1.577819e-05 -1.558684e-06 0.000000e+00  
 1.775171e-05 -9.916649e-07 0.000000e+00  
 1.762129e-05 -1.023302e-06 0.000000e+00  
 1.765098e-05 -1.104258e-06 0.000000e+00  
 1.723077e-05 -1.169007e-06 0.000000e+00  
 1.728715e-05 -1.109429e-06 0.000000e+00  
 1.712462e-05 -1.181968e-06 0.000000e+00  
 1.849966e-05 -8.963445e-07 0.000000e+00  
 1.877900e-05 -8.287651e-07 0.000000e+00  
 1.857328e-05 -8.404008e-07 0.000000e+00  
 1.881667e-05 -7.692310e-07 0.000000e+00  
 1.901014e-05 -7.515901e-07 0.000000e+00  
 1.933445e-05 -6.734324e-07 0.000000e+00  
 1.901085e-05 -6.731911e-07 0.000000e+00  
 2.014767e-05 -3.493493e-07 0.000000e+00  
 1.996563e-05 -3.718875e-07 0.000000e+00  
 1.996319e-05 -4.291923e-07 0.000000e+00  
 1.956520e-05 -5.992418e-07 0.000000e+00  
 1.938594e-05 -6.157757e-07 0.000000e+00  
 1.976256e-05 -4.495796e-07 0.000000e+00  
 1.958528e-05 -5.319702e-07 0.000000e+00  
 1.975564e-05 -5.137750e-07 0.000000e+00  
 2.138433e-05 -1.741602e-07 0.000000e+00  
 2.155563e-05 -1.264593e-07 0.000000e+00  
 2.106426e-05 -2.107699e-07 0.000000e+00  
 2.105812e-05 -2.390581e-07 0.000000e+00  
 2.125307e-05 -1.722779e-07 0.000000e+00  
 2.080750e-05 -2.750832e-07 0.000000e+00  
 2.071353e-05 -2.674368e-07 0.000000e+00  
 2.050315e-05 -2.918571e-07 0.000000e+00  
 2.153301e-05 -3.684601e-08 0.000000e+00  
 2.142041e-05 -7.662890e-08 0.000000e+00  
 2.140422e-05 1.089290e-08 0.000000e+00  
 2.152622e-05 5.389971e-08 0.000000e+00  
 2.153683e-05 1.489601e-07 0.000000e+00  
 2.139116e-05 1.012610e-07 0.000000e+00  
 2.138599e-05 1.967340e-07 0.000000e+00  
 2.151882e-05 2.467781e-07 0.000000e+00  
 2.034883e-05 -2.748600e-07 0.000000e+00  
 2.016231e-05 -2.968815e-07 0.000000e+00  
 2.146895e-05 3.466186e-07 0.000000e+00  
 2.134674e-05 2.964488e-07 0.000000e+00  
 2.143754e-05 4.439656e-07 0.000000e+00  
 2.132473e-05 3.957184e-07 0.000000e+00  
 2.140797e-05 5.440236e-07 0.000000e+00  
 2.129215e-05 4.978998e-07 0.000000e+00  
 2.197269e-05 8.783881e-07 0.000000e+00  
 2.131803e-05 5.902854e-07 0.000000e+00  
 2.146867e-05 6.410265e-07 0.000000e+00  
 2.162105e-05 6.367922e-07 0.000000e+00  
 2.173656e-05 6.830912e-07 0.000000e+00  
 2.160363e-05 7.438607e-07 0.000000e+00  
 2.168610e-05 7.871937e-07 0.000000e+00  
 2.157188e-05 8.428852e-07 0.000000e+00  
 2.167216e-05 8.933233e-07 0.000000e+00  
 1.812686e-05 -9.140102e-07 0.000000e+00  
 1.820433e-05 -8.895334e-07 0.000000e+00  
 1.781564e-05 -8.907647e-07 0.000000e+00  
 1.771051e-05 -9.202155e-07 0.000000e+00  
 1.643510e-05 -1.338795e-06 0.000000e+00  
 1.637523e-05 -1.431785e-06 0.000000e+00  
 1.617761e-05 -1.445471e-06 0.000000e+00  
 1.604902e-05 -1.423979e-06 0.000000e+00  
 1.575917e-05 -1.455922e-06 0.000000e+00  
 1.680310e-05 -1.131693e-06 0.000000e+00  
 1.663538e-05 -1.205078e-06 0.000000e+00  
 1.641847e-05 -1.199456e-06 0.000000e+00  
 1.631484e-05 -1.291708e-06 0.000000e+00  
 1.529866e-05 -1.538397e-06 0.000000e+00  
 1.529849e-05 -1.428933e-06 0.000000e+00  
 1.554498e-05 -1.404211e-06 0.000000e+00  
 1.739516e-05 -8.910858e-07 0.000000e+00  
 1.727016e-05 -9.275183e-07 0.000000e+00  
 1.715651e-05 -1.043335e-06 0.000000e+00  
 1.732692e-05 -9.871265e-07 0.000000e+00  
 1.675316e-05 -1.086135e-06 0.000000e+00  
 1.697358e-05 -1.029211e-06 0.000000e+00  
 1.836238e-05 -7.813188e-07 0.000000e+00  
 1.814001e-05 -8.091379e-07 0.000000e+00  
 1.838524e-05 -7.434071e-07 0.000000e+00  
 1.862636e-05 -7.257394e-07 0.000000e+00  
 1.865879e-05 -6.661983e-07 0.000000e+00  
 1.896294e-05 -6.609364e-07 0.000000e+00  
 1.896609e-05 -5.946662e-07 0.000000e+00  
 1.918838e-05 -5.753622e-07 0.000000e+00  
 1.997811e-05 -2.711551e-07 0.000000e+00  
 1.978294e-05 -3.467519e-07 0.000000e+00  
 1.979311e-05 -2.906027e-07 0.000000e+00  
 1.960268e-05 -3.656738e-07 0.000000e+00  
 1.959128e-05 -4.247766e-07 0.000000e+00  
 1.921193e-05 -5.213325e-07 0.000000e+00  
 1.940834e-05 -4.421041e-07 0.000000e+00  
 1.939360e-05 -5.041614e-07 0.000000e+00  
 2.120574e-05 -8.082685e-08 0.000000e+00  
 2.111865e-05 -1.143759e-07 0.000000e+00  
 2.064216e-05 -1.916606e-07 0.000000e+00  
 2.088542e-05 -1.234764e-07 0.000000e+00  
 2.081555e-05 -1.733017e-07 0.000000e+00  
 2.058766e-05 -1.878466e-07 0.000000e+00  
 2.033539e-05 -2.174129e-07 0.000000e+00  
 2.119153e-05 1.041153e-08 0.000000e+00  
 2.108199e-05 -3.312474e-08 0.000000e+00  
 2.106998e-05 5.423380e-08 0.000000e+00  
 2.120325e-05 1.035713e-07 0.000000e+00  
 2.120247e-05 1.979597e-07 0.000000e+00  
 2.107686e-05 1.463558e-07 0.000000e+00  
 2.105814e-05 2.416366e-07 0.000000e+00  
 2.118435e-05 2.958952e-07 0.000000e+00  
 1.999087e-05 -2.152722e-07 0.000000e+00  
 2.018406e-05 -1.973268e-07 0.000000e+00  
 2.100783e-05 3.432950e-07 0.000000e+00  
 2.112335e-05 3.974459e-07 0.000000e+00  
 2.110203e-05 4.996372e-07 0.000000e+00  
 2.098457e-05 4.420666e-07 0.000000e+00  
 2.107632e-05 6.090683e-07 0.000000e+00  
 2.100895e-05 5.999151e-07 0.000000e+00  
 2.095584e-05 5.427238e-07 0.000000e+00  
 2.195232e-05 9.905515e-07 0.000000e+00  
 2.155532e-05 9.504489e-07 0.000000e+00  
 2.166081e-05 1.002645e-06 0.000000e+00  
 2.193471e-05 1.105822e-06 0.000000e+00  
 2.192048e-05 1.221832e-06 0.000000e+00  
 2.190983e-05 1.335807e-06 0.000000e+00  
 2.190209e-05 1.449966e-06 0.000000e+00  
 2.189611e-05 1.571448e-06 0.000000e+00  
 2.189095e-05 1.692350e-06 0.000000e+00  
 2.134287e-05 7.456216e-07 0.000000e+00  
 2.108567e-05 6.932796e-07 0.000000e+00  
 2.127637e-05 7.044114e-07 0.000000e+00  
 2.094272e-05 7.152356e-07 0.000000e+00  
 2.121932e-05 8.014855e-07 0.000000e+00  
 2.132215e-05 8.520339e-07 0.000000e+00  
 2.121132e-05 9.068485e-07 0.000000e+00  
 2.131873e-05 9.585146e-07 0.000000e+00  
 1.795859e-05 -7.839711e-07 0.000000e+00  
 1.776815e-05 -8.264789e-07 0.000000e+00  
 1.735441e-05 -8.273065e-07 0.000000e+00  
 1.751127e-05 -7.924410e-07 0.000000e+00  
 1.597203e-05 -1.281938e-06 0.000000e+00  
 1.592203e-05 -1.306777e-06 0.000000e+00  
 1.557080e-05 -1.322008e-06 0.000000e+00  
 1.656351e-05 -1.056151e-06 0.000000e+00  
 1.626984e-05 -1.145975e-06 0.000000e+00  
 1.588569e-05 -1.212102e-06 0.000000e+00  
 1.632490e-05 -1.080882e-06 0.000000e+00  
 1.601694e-05 -1.148292e-06 0.000000e+00  
 1.481818e-05 -1.523006e-06 0.000000e+00  
 1.431375e-05 -1.513629e-06 0.000000e+00  
 1.507696e-05 -1.378543e-06 0.000000e+00  
 1.481461e-05 -1.411804e-06 0.000000e+00  
 1.539050e-05 -1.264022e-06 0.000000e+00  
 1.508799e-05 -1.298592e-06 0.000000e+00  
 1.707659e-05 -7.923115e-07 0.000000e+00  
 1.692053e-05 -8.286627e-07 0.000000e+00  
 1.699221e-05 -9.016893e-07 0.000000e+00  
 1.683717e-05 -9.443450e-07 0.000000e+00  
 1.661010e-05 -9.306583e-07 0.000000e+00  
 1.650040e-05 -9.623211e-07 0.000000e+00  
 1.791051e-05 -7.396359e-07 0.000000e+00  
 1.822105e-05 -6.934949e-07 0.000000e+00  
 1.804455e-05 -6.929228e-07 0.000000e+00  
 1.881589e-05 -5.654918e-07 0.000000e+00  
 1.855371e-05 -6.358047e-07 0.000000e+00  
 1.831078e-05 -6.383919e-07 0.000000e+00  
 1.859799e-05 -5.780698e-07 0.000000e+00  
 1.883318e-05 -5.047433e-07 0.000000e+00  
 1.903217e-05 -4.897299e-07 0.000000e+00  