# vtk DataFile Version 1.0 
PolyMesh 
ASCII 
 
DATASET POLYDATA 
 
POINTS 9974 float 
-4.457100e-12 2.000000e+00 0.000000e+00  
 5.606064e-02 2.000000e+00 0.000000e+00  
 5.219457e-02 1.947763e+00 0.000000e+00  
 -5.412500e-12 1.942341e+00 0.000000e+00  
 1.091298e-01 2.000000e+00 0.000000e+00  
 1.085077e-01 1.942661e+00 0.000000e+00  
 6.762871e-02 1.932926e+00 0.000000e+00  
 6.017354e-02 1.889584e+00 0.000000e+00  
 -5.412500e-12 1.891584e+00 0.000000e+00  
 1.646992e-01 2.000000e+00 0.000000e+00  
 1.304187e-01 1.928176e+00 0.000000e+00  
 1.663731e-01 1.949059e+00 0.000000e+00  
 1.328809e-01 1.900832e+00 0.000000e+00  
 1.039622e-01 1.871138e+00 0.000000e+00  
 6.897568e-02 1.876459e+00 0.000000e+00  
 5.010110e-02 1.832828e+00 0.000000e+00  
 -5.107300e-12 1.833612e+00 0.000000e+00  
 2.244944e-01 2.000000e+00 0.000000e+00  
 2.765630e-01 2.000000e+00 0.000000e+00  
 2.016981e-01 1.932278e+00 0.000000e+00  
 2.224170e-01 1.944898e+00 0.000000e+00  
 1.986306e-01 1.888709e+00 0.000000e+00  
 1.750340e-01 1.876877e+00 0.000000e+00  
 1.653482e-01 1.836913e+00 0.000000e+00  
 1.214431e-01 1.832725e+00 0.000000e+00  
 1.076771e-01 1.808283e+00 0.000000e+00  
 6.707211e-02 1.806488e+00 0.000000e+00  
 5.140337e-02 1.773168e+00 0.000000e+00  
 -5.049000e-12 1.772666e+00 0.000000e+00  
 -5.049000e-12 1.712637e+00 0.000000e+00  
 3.340957e-01 2.000000e+00 0.000000e+00  
 2.664744e-01 1.930473e+00 0.000000e+00  
 2.803527e-01 1.943173e+00 0.000000e+00  
 3.306458e-01 1.940630e+00 0.000000e+00  
 2.330674e-01 1.870198e+00 0.000000e+00  
 2.680993e-01 1.896366e+00 0.000000e+00  
 2.366258e-01 1.842608e+00 0.000000e+00  
 1.853702e-01 1.812019e+00 0.000000e+00  
 2.054761e-01 1.811192e+00 0.000000e+00  
 1.261399e-01 1.773122e+00 0.000000e+00  
 1.610791e-01 1.772886e+00 0.000000e+00  
 1.081983e-01 1.744002e+00 0.000000e+00  
 6.794162e-02 1.743681e+00 0.000000e+00  
 5.158065e-02 1.712164e+00 0.000000e+00  
 -4.955700e-12 1.651328e+00 0.000000e+00  
 6.675256e-02 1.682408e+00 0.000000e+00  
 5.015367e-02 1.650865e+00 0.000000e+00  
 3.914477e-01 2.000000e+00 0.000000e+00  
 4.289324e-01 2.000000e+00 0.000000e+00  
 3.383937e-01 1.932816e+00 0.000000e+00  
 3.819270e-01 1.938523e+00 0.000000e+00  
 3.323605e-01 1.887360e+00 0.000000e+00  
 3.045779e-01 1.874375e+00 0.000000e+00  
 2.976888e-01 1.831339e+00 0.000000e+00  
 2.778603e-01 1.821818e+00 0.000000e+00  
 2.678366e-01 1.778884e+00 0.000000e+00  
 2.331858e-01 1.771834e+00 0.000000e+00  
 -4.860000e-12 1.588697e+00 0.000000e+00  
 2.185557e-01 1.742217e+00 0.000000e+00  
 1.831516e-01 1.738122e+00 0.000000e+00  
 1.676853e-01 1.710670e+00 0.000000e+00  
 1.264986e-01 1.707591e+00 0.000000e+00  
 1.116483e-01 1.681295e+00 0.000000e+00  
 6.625442e-02 1.620877e+00 0.000000e+00  
 4.793786e-02 1.588397e+00 0.000000e+00  
 1.058006e-01 1.619283e+00 0.000000e+00  
 1.242531e-01 1.651383e+00 0.000000e+00  
 -4.841600e-12 1.524918e+00 0.000000e+00  
 4.957133e-01 2.000000e+00 0.000000e+00  
 4.457924e-01 1.944316e+00 0.000000e+00  
 4.927620e-01 1.954243e+00 0.000000e+00  
 4.045372e-01 1.920504e+00 0.000000e+00  
 4.353798e-01 1.926668e+00 0.000000e+00  
 3.682612e-01 1.864449e+00 0.000000e+00  
 3.909951e-01 1.872167e+00 0.000000e+00  
 3.369176e-01 1.809593e+00 0.000000e+00  
 3.557897e-01 1.816813e+00 0.000000e+00  
 3.247732e-01 1.763257e+00 0.000000e+00  
 2.927602e-01 1.755724e+00 0.000000e+00  
 2.810881e-01 1.715838e+00 0.000000e+00  
 2.422366e-01 1.709535e+00 0.000000e+00  
 6.601528e-02 1.556341e+00 0.000000e+00  
 4.748255e-02 1.525132e+00 0.000000e+00  
 2.284509e-01 1.676490e+00 0.000000e+00  
 1.884897e-01 1.671289e+00 0.000000e+00  
 1.735641e-01 1.645478e+00 0.000000e+00  
 1.014442e-01 1.556062e+00 0.000000e+00  
 1.224751e-01 1.588098e+00 0.000000e+00  
 1.806657e-01 1.622116e+00 0.000000e+00  
 1.539607e-01 1.585707e+00 0.000000e+00  
 -5.088100e-12 1.461477e+00 0.000000e+00  
 6.609705e-02 1.491317e+00 0.000000e+00  
 5.090266e-02 1.462684e+00 0.000000e+00  
 -5.088100e-12 1.401357e+00 0.000000e+00  
 5.551155e-01 2.000000e+00 0.000000e+00  
 5.101657e-01 1.937278e+00 0.000000e+00  
 5.523913e-01 1.950747e+00 0.000000e+00  
 4.638040e-01 1.888493e+00 0.000000e+00  
 5.067516e-01 1.902183e+00 0.000000e+00  
 4.268654e-01 1.848516e+00 0.000000e+00  
 4.549115e-01 1.858720e+00 0.000000e+00  
 3.951015e-01 1.793939e+00 0.000000e+00  
 4.164402e-01 1.802372e+00 0.000000e+00  
 3.841322e-01 1.748731e+00 0.000000e+00  
 3.537294e-01 1.739321e+00 0.000000e+00  
 3.439146e-01 1.699394e+00 0.000000e+00  
 3.042330e-01 1.690040e+00 0.000000e+00  
 2.521576e-01 1.644967e+00 0.000000e+00  
 2.949508e-01 1.656004e+00 0.000000e+00  
 1.074012e-01 1.494056e+00 0.000000e+00  
 1.215411e-01 1.520307e+00 0.000000e+00  
 2.423419e-01 1.612344e+00 0.000000e+00  
 1.607958e-01 1.524669e+00 0.000000e+00  
 2.236133e-01 1.603793e+00 0.000000e+00  
 1.743224e-01 1.552273e+00 0.000000e+00  
 2.121697e-01 1.557385e+00 0.000000e+00  
 6.791484e-02 1.430173e+00 0.000000e+00  
 5.276554e-02 1.399781e+00 0.000000e+00  
 1.128486e-01 1.432226e+00 0.000000e+00  
 1.260578e-01 1.458556e+00 0.000000e+00  
 6.525271e-02 1.374481e+00 0.000000e+00  
 4.516346e-02 1.336881e+00 0.000000e+00  
 -4.781100e-12 1.337212e+00 0.000000e+00  
 6.129844e-01 2.000000e+00 0.000000e+00  
 6.701570e-01 2.000000e+00 0.000000e+00  
 7.287462e-01 2.000000e+00 0.000000e+00  
 7.880967e-01 2.000000e+00 0.000000e+00  
 5.774663e-01 1.930459e+00 0.000000e+00  
 6.119154e-01 1.943167e+00 0.000000e+00  
 5.715876e-01 1.896783e+00 0.000000e+00  
 5.281383e-01 1.881520e+00 0.000000e+00  
 8.478398e-01 2.000000e+00 0.000000e+00  
 4.866174e-01 1.831213e+00 0.000000e+00  
 5.256158e-01 1.847279e+00 0.000000e+00  
 5.494463e-01 1.827290e+00 0.000000e+00  
 4.525555e-01 1.781379e+00 0.000000e+00  
 4.816842e-01 1.794976e+00 0.000000e+00  
 4.169911e-01 1.724085e+00 0.000000e+00  
 4.477748e-01 1.736509e+00 0.000000e+00  
 4.089471e-01 1.684733e+00 0.000000e+00  
 3.691333e-01 1.673991e+00 0.000000e+00  
 3.603895e-01 1.637664e+00 0.000000e+00  
 3.207933e-01 1.626033e+00 0.000000e+00  
 3.120826e-01 1.595643e+00 0.000000e+00  
 2.797408e-01 1.583759e+00 0.000000e+00  
 1.825948e-01 1.489926e+00 0.000000e+00  
 1.709410e-01 1.463020e+00 0.000000e+00  
 2.700699e-01 1.542499e+00 0.000000e+00  
 2.228037e-01 1.497453e+00 0.000000e+00  
 2.343562e-01 1.535192e+00 0.000000e+00  
 1.291917e-01 1.399178e+00 0.000000e+00  
 1.112242e-01 1.367116e+00 0.000000e+00  
 1.734058e-01 1.398768e+00 0.000000e+00  
 1.883749e-01 1.432165e+00 0.000000e+00  
 1.200055e-01 1.344246e+00 0.000000e+00  
 1.476402e-01 1.332004e+00 0.000000e+00  
 6.668499e-02 1.305770e+00 0.000000e+00  
 8.657061e-02 1.305215e+00 0.000000e+00  
 4.283367e-02 1.270341e+00 0.000000e+00  
 -4.700600e-12 1.270692e+00 0.000000e+00  
 -4.653200e-12 1.203684e+00 0.000000e+00  
 6.375137e-01 1.929046e+00 0.000000e+00  
 6.707716e-01 1.943058e+00 0.000000e+00  
 6.972872e-01 1.929785e+00 0.000000e+00  
 7.295185e-01 1.945022e+00 0.000000e+00  
 7.579971e-01 1.931169e+00 0.000000e+00  
 7.888350e-01 1.947041e+00 0.000000e+00  
 8.188857e-01 1.932591e+00 0.000000e+00  
 8.485257e-01 1.948986e+00 0.000000e+00  
 6.013865e-01 1.864429e+00 0.000000e+00  
 6.372163e-01 1.881101e+00 0.000000e+00  
 5.974966e-01 1.849631e+00 0.000000e+00  
 8.799343e-01 1.934017e+00 0.000000e+00  
 9.082490e-01 1.950702e+00 0.000000e+00  
 9.076946e-01 2.000000e+00 0.000000e+00  
 5.159627e-01 1.772353e+00 0.000000e+00  
 5.506389e-01 1.796236e+00 0.000000e+00  
 6.216803e-01 1.806053e+00 0.000000e+00  
 5.830532e-01 1.777246e+00 0.000000e+00  
 2.917203e-01 1.522883e+00 0.000000e+00  
 4.812393e-01 1.716360e+00 0.000000e+00  
 5.171050e-01 1.745993e+00 0.000000e+00  
 4.843406e-01 1.695673e+00 0.000000e+00  
 4.363389e-01 1.658159e+00 0.000000e+00  
 4.573088e-01 1.660451e+00 0.000000e+00  
 4.167561e-01 1.615141e+00 0.000000e+00  
 3.888616e-01 1.609141e+00 0.000000e+00  
 3.747817e-01 1.571697e+00 0.000000e+00  
 3.434726e-01 1.562991e+00 0.000000e+00  
 3.319391e-01 1.531625e+00 0.000000e+00  
 2.479264e-01 1.468410e+00 0.000000e+00  
 2.347766e-01 1.434130e+00 0.000000e+00  
 2.848760e-01 1.476457e+00 0.000000e+00  
 3.032257e-01 1.462168e+00 0.000000e+00  
 1.893375e-01 1.370958e+00 0.000000e+00  
 1.791055e-01 1.344358e+00 0.000000e+00  
 2.510849e-01 1.406224e+00 0.000000e+00  
 2.335621e-01 1.374034e+00 0.000000e+00  
 2.129456e-01 1.303225e+00 0.000000e+00  
 1.166461e-01 1.269702e+00 0.000000e+00  
 1.685404e-01 1.270576e+00 0.000000e+00  
 1.493422e-01 1.279937e+00 0.000000e+00  
 1.044267e-01 1.240049e+00 0.000000e+00  
 6.402487e-02 1.236438e+00 0.000000e+00  
 4.718390e-02 1.203877e+00 0.000000e+00  
 6.462843e-02 1.175916e+00 0.000000e+00  
 4.448703e-02 1.137110e+00 0.000000e+00  
 -4.941700e-12 1.135989e+00 0.000000e+00  
 -4.941700e-12 1.070588e+00 0.000000e+00  
 -4.386100e-12 1.000319e+00 0.000000e+00  
 6.669509e-01 1.865975e+00 0.000000e+00  
 6.991019e-01 1.882882e+00 0.000000e+00  
 7.598727e-01 1.886209e+00 0.000000e+00  
 7.291403e-01 1.868877e+00 0.000000e+00  
 7.911520e-01 1.872015e+00 0.000000e+00  
 8.206745e-01 1.889909e+00 0.000000e+00  
 8.815299e-01 1.893596e+00 0.000000e+00  
 8.536597e-01 1.875134e+00 0.000000e+00  
 6.686100e-01 1.820834e+00 0.000000e+00  
 6.386842e-01 1.801826e+00 0.000000e+00  
 9.666626e-01 2.000000e+00 0.000000e+00  
 9.171540e-01 1.878169e+00 0.000000e+00  
 9.421818e-01 1.896914e+00 0.000000e+00  
 9.407964e-01 1.935436e+00 0.000000e+00  
 9.682116e-01 1.952444e+00 0.000000e+00  
 5.868835e-01 1.744268e+00 0.000000e+00  
 5.551370e-01 1.722620e+00 0.000000e+00  
 6.162256e-01 1.730325e+00 0.000000e+00  
 6.519673e-01 1.751599e+00 0.000000e+00  
 3.584056e-01 1.495711e+00 0.000000e+00  
 3.539441e-01 1.481164e+00 0.000000e+00  
 5.538267e-01 1.689478e+00 0.000000e+00  
 5.300138e-01 1.673213e+00 0.000000e+00  
 4.909517e-01 1.622309e+00 0.000000e+00  
 5.259129e-01 1.637386e+00 0.000000e+00  
[...]
 POINT_DATA 9974 
 VECTORS Displacement float 
 0.000000e+00 -2.557515e-05 0.000000e+00  
 4.052986e-07 -2.552993e-05 0.000000e+00  
 4.524949e-07 -2.540966e-05 0.000000e+00  
 0.000000e+00 -2.543970e-05 0.000000e+00  
 7.887331e-07 -2.539723e-05 0.000000e+00  
 9.584433e-07 -2.525735e-05 0.000000e+00  
 6.149033e-07 -2.534344e-05 0.000000e+00  
 6.071530e-07 -2.524177e-05 0.000000e+00  
 0.000000e+00 -2.530389e-05 0.000000e+00  
 1.200493e-06 -2.516630e-05 0.000000e+00  
 1.204437e-06 -2.513854e-05 0.000000e+00  
 1.452474e-06 -2.502648e-05 0.000000e+00  
 1.314358e-06 -2.505074e-05 0.000000e+00  
 1.095128e-06 -2.507103e-05 0.000000e+00  
 7.181408e-07 -2.518545e-05 0.000000e+00  
 5.668669e-07 -2.508916e-05 0.000000e+00  
 0.000000e+00 -2.513480e-05 0.000000e+00  
 1.666718e-06 -2.481775e-05 0.000000e+00  
 2.094566e-06 -2.443390e-05 0.000000e+00  
 1.860114e-06 -2.478330e-05 0.000000e+00  
 1.989486e-06 -2.468473e-05 0.000000e+00  
 2.037795e-06 -2.467607e-05 0.000000e+00  
 1.835877e-06 -2.477603e-05 0.000000e+00  
 1.871719e-06 -2.470541e-05 0.000000e+00  
 1.380316e-06 -2.489197e-05 0.000000e+00  
 1.275050e-06 -2.486827e-05 0.000000e+00  
 7.952909e-07 -2.497768e-05 0.000000e+00  
 6.417485e-07 -2.490546e-05 0.000000e+00  
 0.000000e+00 -2.494914e-05 0.000000e+00  
 0.000000e+00 -2.476394e-05 0.000000e+00  
 2.604276e-06 -2.393050e-05 0.000000e+00  
 2.505636e-06 -2.432214e-05 0.000000e+00  
 2.558620e-06 -2.424462e-05 0.000000e+00  
 3.084823e-06 -2.379221e-05 0.000000e+00  
 2.497604e-06 -2.438939e-05 0.000000e+00  
 2.736755e-06 -2.420432e-05 0.000000e+00  
 2.673679e-06 -2.427552e-05 0.000000e+00  
 2.195156e-06 -2.451680e-05 0.000000e+00  
 2.440391e-06 -2.438849e-05 0.000000e+00  
 1.579730e-06 -2.468833e-05 0.000000e+00  
 2.022574e-06 -2.452354e-05 0.000000e+00  
 1.411002e-06 -2.466468e-05 0.000000e+00  
 8.853040e-07 -2.478171e-05 0.000000e+00  
 7.005559e-07 -2.471640e-05 0.000000e+00  
 0.000000e+00 -2.457600e-05 0.000000e+00  
 9.415833e-07 -2.459372e-05 0.000000e+00  
 7.346929e-07 -2.453011e-05 0.000000e+00  
 3.145798e-06 -2.335931e-05 0.000000e+00  
 3.505478e-06 -2.294826e-05 0.000000e+00  
 3.229962e-06 -2.369316e-05 0.000000e+00  
 3.642196e-06 -2.326930e-05 0.000000e+00  
 3.505221e-06 -2.360627e-05 0.000000e+00  
 3.277425e-06 -2.382335e-05 0.000000e+00  
 3.460257e-06 -2.374269e-05 0.000000e+00  
 3.271587e-06 -2.388200e-05 0.000000e+00  
 3.365682e-06 -2.381970e-05 0.000000e+00  
 2.949285e-06 -2.406649e-05 0.000000e+00  
 0.000000e+00 -2.438782e-05 0.000000e+00  
 2.877289e-06 -2.407257e-05 0.000000e+00  
 2.417521e-06 -2.428849e-05 0.000000e+00  
 2.291715e-06 -2.428747e-05 0.000000e+00  
 1.731919e-06 -2.447862e-05 0.000000e+00  
 1.578576e-06 -2.445537e-05 0.000000e+00  
 1.004759e-06 -2.440609e-05 0.000000e+00  
 7.536888e-07 -2.434482e-05 0.000000e+00  
 1.608439e-06 -2.428245e-05 0.000000e+00  
 1.821523e-06 -2.430954e-05 0.000000e+00  
 0.000000e+00 -2.420082e-05 0.000000e+00  
 4.214369e-06 -2.214344e-05 0.000000e+00  
 4.294303e-06 -2.256602e-05 0.000000e+00  
 4.724416e-06 -2.202387e-05 0.000000e+00  
 4.057294e-06 -2.296412e-05 0.000000e+00  
 4.347631e-06 -2.263110e-05 0.000000e+00  
 4.092424e-06 -2.316621e-05 0.000000e+00  
 4.305508e-06 -2.294811e-05 0.000000e+00  
 4.080193e-06 -2.329565e-05 0.000000e+00  
 4.273871e-06 -2.312912e-05 0.000000e+00  
 4.198534e-06 -2.324921e-05 0.000000e+00  
 3.809335e-06 -2.352473e-05 0.000000e+00  
 3.846913e-06 -2.348796e-05 0.000000e+00  
 3.330752e-06 -2.378846e-05 0.000000e+00  
 1.074829e-06 -2.421280e-05 0.000000e+00  
 8.001117e-07 -2.415854e-05 0.000000e+00  
 3.265432e-06 -2.378129e-05 0.000000e+00  
 2.705277e-06 -2.403676e-05 0.000000e+00  
 2.565246e-06 -2.404479e-05 0.000000e+00  
 1.652705e-06 -2.410463e-05 0.000000e+00  
 1.927395e-06 -2.412037e-05 0.000000e+00  
 2.742111e-06 -2.392439e-05 0.000000e+00  
 2.430987e-06 -2.395908e-05 0.000000e+00  
 0.000000e+00 -2.401801e-05 0.000000e+00  
 1.156185e-06 -2.402087e-05 0.000000e+00  
 9.201861e-07 -2.397081e-05 0.000000e+00  
 0.000000e+00 -2.384324e-05 0.000000e+00  
 4.892916e-06 -2.137518e-05 0.000000e+00  
 5.120116e-06 -2.174127e-05 0.000000e+00  
 5.481060e-06 -2.123190e-05 0.000000e+00  
 5.050709e-06 -2.215207e-05 0.000000e+00  
 5.450074e-06 -2.165735e-05 0.000000e+00  
 4.939958e-06 -2.245268e-05 0.000000e+00  
 5.208425e-06 -2.215254e-05 0.000000e+00  
 4.940962e-06 -2.261833e-05 0.000000e+00  
 5.163914e-06 -2.240341e-05 0.000000e+00  
 5.097550e-06 -2.257048e-05 0.000000e+00  
 4.733312e-06 -2.286754e-05 0.000000e+00  
 4.826494e-06 -2.282122e-05 0.000000e+00  
 4.302540e-06 -2.318445e-05 0.000000e+00  
 3.742893e-06 -2.348754e-05 0.000000e+00  
 4.333959e-06 -2.314872e-05 0.000000e+00  
 1.873221e-06 -2.389628e-05 0.000000e+00  
 2.059148e-06 -2.391636e-05 0.000000e+00  
 3.725460e-06 -2.345578e-05 0.000000e+00  
 2.712774e-06 -2.372962e-05 0.000000e+00  
 3.468034e-06 -2.357087e-05 0.000000e+00  
 2.854700e-06 -2.373674e-05 0.000000e+00  
 3.458379e-06 -2.349796e-05 0.000000e+00  
 1.274877e-06 -2.383675e-05 0.000000e+00  
 1.028665e-06 -2.378294e-05 0.000000e+00  
 2.112719e-06 -2.368823e-05 0.000000e+00  
 2.288054e-06 -2.370814e-05 0.000000e+00  
 1.313971e-06 -2.367553e-05 0.000000e+00  
 9.571857e-07 -2.360228e-05 0.000000e+00  
 0.000000e+00 -2.364912e-05 0.000000e+00  
 5.598765e-06 -2.058534e-05 0.000000e+00  
 6.338495e-06 -1.977450e-05 0.000000e+00  
 7.140310e-06 -1.892148e-05 0.000000e+00  
 7.996485e-06 -1.804413e-05 0.000000e+00  
 6.037143e-06 -2.081319e-05 0.000000e+00  
 6.332415e-06 -2.038041e-05 0.000000e+00  
 6.339709e-06 -2.076332e-05 0.000000e+00  
 5.932758e-06 -2.129665e-05 0.000000e+00  
 8.900649e-06 -1.715685e-05 0.000000e+00  
 5.861733e-06 -2.164739e-05 0.000000e+00  
 6.234456e-06 -2.119651e-05 0.000000e+00  
 6.747679e-06 -2.079060e-05 0.000000e+00  
 5.811214e-06 -2.188465e-05 0.000000e+00  
 6.102965e-06 -2.156832e-05 0.000000e+00  
 5.726053e-06 -2.209439e-05 0.000000e+00  
 6.079703e-06 -2.176587e-05 0.000000e+00  
 5.869486e-06 -2.203461e-05 0.000000e+00  
 5.344157e-06 -2.245256e-05 0.000000e+00  
 5.424780e-06 -2.240935e-05 0.000000e+00  
 4.878435e-06 -2.278724e-05 0.000000e+00  
 4.899318e-06 -2.276253e-05 0.000000e+00  
 4.441972e-06 -2.302998e-05 0.000000e+00  
 3.199346e-06 -2.348575e-05 0.000000e+00  
 3.086752e-06 -2.347524e-05 0.000000e+00  
 4.477263e-06 -2.297157e-05 0.000000e+00  
 3.873269e-06 -2.321790e-05 0.000000e+00  
 3.912083e-06 -2.325432e-05 0.000000e+00  
 2.517232e-06 -2.350996e-05 0.000000e+00  
 2.257066e-06 -2.349431e-05 0.000000e+00  
 3.375676e-06 -2.325239e-05 0.000000e+00  
 3.522938e-06 -2.325897e-05 0.000000e+00  
 2.511829e-06 -2.337969e-05 0.000000e+00  
 3.136647e-06 -2.318865e-05 0.000000e+00  
 1.476395e-06 -2.345287e-05 0.000000e+00  
 1.916400e-06 -2.338552e-05 0.000000e+00  
 1.002674e-06 -2.337924e-05 0.000000e+00  
 0.000000e+00 -2.342555e-05 0.000000e+00  
 0.000000e+00 -2.315432e-05 0.000000e+00  
 6.845630e-06 -1.995880e-05 0.000000e+00  
 7.122068e-06 -1.953340e-05 0.000000e+00  
 7.659641e-06 -1.908836e-05 0.000000e+00  
 7.919053e-06 -1.867491e-05 0.000000e+00  
 8.513445e-06 -1.818894e-05 0.000000e+00  
 8.758129e-06 -1.779648e-05 0.000000e+00  
 9.403833e-06 -1.727923e-05 0.000000e+00  
 9.637777e-06 -1.690951e-05 0.000000e+00  
 7.089045e-06 -2.021423e-05 0.000000e+00  
 7.403633e-06 -1.976533e-05 0.000000e+00  
 7.190563e-06 -2.020788e-05 0.000000e+00  
 1.032958e-05 -1.636901e-05 0.000000e+00  
 1.055360e-05 -1.602692e-05 0.000000e+00  
 9.845970e-06 -1.627244e-05 0.000000e+00  
 6.771350e-06 -2.102288e-05 0.000000e+00  
 7.052670e-06 -2.064551e-05 0.000000e+00  
 7.974814e-06 -1.967244e-05 0.000000e+00  
 7.691942e-06 -2.010590e-05 0.000000e+00  
 4.939207e-06 -2.269607e-05 0.000000e+00  
 6.716914e-06 -2.125367e-05 0.000000e+00  
 7.006434e-06 -2.089662e-05 0.000000e+00  
 6.919281e-06 -2.112538e-05 0.000000e+00  
 6.461444e-06 -2.159088e-05 0.000000e+00  
 6.766628e-06 -2.133054e-05 0.000000e+00  
 6.444710e-06 -2.165610e-05 0.000000e+00  
 6.041349e-06 -2.197118e-05 0.000000e+00  
 6.046356e-06 -2.198578e-05 0.000000e+00  
 5.585023e-06 -2.230788e-05 0.000000e+00  
 5.572548e-06 -2.231214e-05 0.000000e+00  
 4.447466e-06 -2.291089e-05 0.000000e+00  
 4.377352e-06 -2.290494e-05 0.000000e+00  
 5.064866e-06 -2.259419e-05 0.000000e+00  
 5.475611e-06 -2.235430e-05 0.000000e+00  
 3.813674e-06 -2.304908e-05 0.000000e+00  
 3.734271e-06 -2.302984e-05 0.000000e+00  
 4.832849e-06 -2.266233e-05 0.000000e+00  
 4.675550e-06 -2.270184e-05 0.000000e+00  
 4.688020e-06 -2.262293e-05 0.000000e+00  
 2.721729e-06 -2.313463e-05 0.000000e+00  
 3.912815e-06 -2.283596e-05 0.000000e+00  
 3.421413e-06 -2.299264e-05 0.000000e+00  
 2.560235e-06 -2.307448e-05 0.000000e+00  
 1.582400e-06 -2.320059e-05 0.000000e+00  
 1.239897e-06 -2.310093e-05 0.000000e+00  
 1.790004e-06 -2.292577e-05 0.000000e+00  
 1.341397e-06 -2.275453e-05 0.000000e+00  
 0.000000e+00 -2.280361e-05 0.000000e+00  
 0.000000e+00 -2.232754e-05 0.000000e+00  
 0.000000e+00 -2.158472e-05 0.000000e+00  
 7.991409e-06 -1.926513e-05 0.000000e+00  
 8.257782e-06 -1.885970e-05 0.000000e+00  
 9.106967e-06 -1.795954e-05 0.000000e+00  
 8.859406e-06 -1.834648e-05 0.000000e+00  
 9.748818e-06 -1.741979e-05 0.000000e+00  
 9.979207e-06 -1.705430e-05 0.000000e+00  
 1.087887e-05 -1.615156e-05 0.000000e+00  
 1.067234e-05 -1.648427e-05 0.000000e+00  
 8.506185e-06 -1.904217e-05 0.000000e+00  
 8.264935e-06 -1.940291e-05 0.000000e+00  
 1.081235e-05 -1.541300e-05 0.000000e+00  
 1.163831e-05 -1.554215e-05 0.000000e+00  
 1.180543e-05 -1.526207e-05 0.000000e+00  
 1.128320e-05 -1.547210e-05 0.000000e+00  
 1.150329e-05 -1.515431e-05 0.000000e+00  
 8.049006e-06 -1.990607e-05 0.000000e+00  
 7.764129e-06 -2.026566e-05 0.000000e+00  
 8.617391e-06 -1.941189e-05 0.000000e+00  
 8.957607e-06 -1.897680e-05 0.000000e+00  
 6.244863e-06 -2.187439e-05 0.000000e+00  
 6.261180e-06 -2.186780e-05 0.000000e+00  
 8.023364e-06 -2.013644e-05 0.000000e+00  
 7.789982e-06 -2.040096e-05 0.000000e+00  
 7.572562e-06 -2.071661e-05 0.000000e+00  
 8.011089e-06 -2.029679e-05 0.000000e+00  
 7.638750e-06 -2.071079e-05 0.000000e+00  
 7.188663e-06 -2.110286e-05 0.000000e+00  
 6.802070e-06 -2.145433e-05 0.000000e+00  
 7.258557e-06 -2.109087e-05 0.000000e+00  
 6.839840e-06 -2.144876e-05 0.000000e+00  
 5.612487e-06 -2.225877e-05 0.000000e+00  
 5.805795e-06 -2.215351e-05 0.000000e+00  
 6.725362e-06 -2.159365e-05 0.000000e+00  
 6.863490e-06 -2.148168e-05 0.000000e+00  
 5.317268e-06 -2.238343e-05 0.000000e+00  
 4.847891e-06 -2.255785e-05 0.000000e+00  
 5.849164e-06 -2.212195e-05 0.000000e+00  
 6.175791e-06 -2.194646e-05 0.000000e+00  
 5.582588e-06 -2.222489e-05 0.000000e+00  
 4.409982e-06 -2.261491e-05 0.000000e+00  
 5.353092e-06 -2.228583e-05 0.000000e+00  
 3.176215e-06 -2.286216e-05 0.000000e+00  
 4.096232e-06 -2.264742e-05 0.000000e+00  
 2.875470e-06 -2.277604e-05 0.000000e+00  
 3.411839e-06 -2.258601e-05 0.000000e+00  
 2.159617e-06 -2.251972e-05 0.000000e+00  
 3.219038e-06 -2.243166e-05 0.000000e+00  
 1.836733e-06 -2.224240e-05 0.000000e+00  
 2.132515e-06 -2.213972e-05 0.000000e+00  
 1.953844e-06 -2.153322e-05 0.000000e+00  
 9.169222e-06 -1.845508e-05 0.000000e+00  
 9.404078e-06 -1.810310e-05 0.000000e+00  
 1.004742e-05 -1.754249e-05 0.000000e+00  
 1.028989e-05 -1.717631e-05 0.000000e+00  
 1.118895e-05 -1.625134e-05 0.000000e+00  
 1.095107e-05 -1.661402e-05 0.000000e+00  
 1.187278e-05 -1.568772e-05 0.000000e+00  
 1.212726e-05 -1.532051e-05 0.000000e+00  
 9.687064e-06 -1.819553e-05 0.000000e+00  
 9.403600e-06 -1.857717e-05 0.000000e+00  
 1.278376e-05 -1.480200e-05 0.000000e+00  
 1.218412e-05 -1.465030e-05 0.000000e+00  
 1.242234e-05 -1.433330e-05 0.000000e+00  
 1.185045e-05 -1.453867e-05 0.000000e+00  
 1.285248e-05 -1.374163e-05 0.000000e+00  
 1.267380e-05 -1.457990e-05 0.000000e+00  
 1.310380e-05 -1.437737e-05 0.000000e+00  
 1.275362e-05 -1.439275e-05 0.000000e+00  
 1.366437e-05 -1.396279e-05 0.000000e+00  
 9.116756e-06 -1.911546e-05 0.000000e+00  
 8.821124e-06 -1.945808e-05 0.000000e+00  
 9.582323e-06 -1.870172e-05 0.000000e+00  
 9.944651e-06 -1.825352e-05 0.000000e+00  
 7.687831e-06 -2.086088e-05 0.000000e+00  
 7.614629e-06 -2.095733e-05 0.000000e+00  
 9.108030e-06 -1.932269e-05 0.000000e+00  
 8.690859e-06 -1.974786e-05 0.000000e+00  
 8.119734e-06 -2.051849e-05 0.000000e+00  
 8.395412e-06 -2.013057e-05 0.000000e+00  
 8.902336e-06 -1.965790e-05 0.000000e+00  
 8.507859e-06 -2.010898e-05 0.000000e+00  
 8.051370e-06 -2.050351e-05 0.000000e+00  
 7.181362e-06 -2.132489e-05 0.000000e+00  
 6.934816e-06 -2.150764e-05 0.000000e+00  
 8.128652e-06 -2.062858e-05 0.000000e+00  
 7.824676e-06 -2.090095e-05 0.000000e+00  
 6.578083e-06 -2.175610e-05 0.000000e+00  
 6.366070e-06 -2.187201e-05 0.000000e+00  
 7.489978e-06 -2.120798e-05 0.000000e+00  
 7.304132e-06 -2.135735e-05 0.000000e+00  
 6.996439e-06 -2.158302e-05 0.000000e+00  
 5.993022e-06 -2.202532e-05 0.000000e+00  
 6.815733e-06 -2.168502e-05 0.000000e+00  
 4.987382e-06 -2.229762e-05 0.000000e+00  
 5.832628e-06 -2.204361e-05 0.000000e+00  
 4.768973e-06 -2.230174e-05 0.000000e+00  
 4.376708e-06 -2.210295e-05 0.000000e+00  
 5.409789e-06 -2.201918e-05 0.000000e+00  
 4.535275e-06 -2.194452e-05 0.000000e+00  
 3.982044e-06 -2.188986e-05 0.000000e+00  
 4.532265e-06 -2.135177e-05 0.000000e+00  
 1.057600e-05 -1.727352e-05 0.000000e+00  
 1.031129e-05 -1.764350e-05 0.000000e+00  
 1.145570e-05 -1.635741e-05 0.000000e+00  
 1.122180e-05 -1.671069e-05 0.000000e+00  
 1.215295e-05 -1.576188e-05 0.000000e+00  
 1.238191e-05 -1.543524e-05 0.000000e+00  
 1.305716e-05 -1.487265e-05 0.000000e+00  
 1.330055e-05 -1.453801e-05 0.000000e+00  
 1.054086e-05 -1.773214e-05 0.000000e+00  
 1.083774e-05 -1.734860e-05 0.000000e+00  
 1.095316e-05 -1.749486e-05 0.000000e+00  
 1.394017e-05 -1.402203e-05 0.000000e+00  
 1.418314e-05 -1.370584e-05 0.000000e+00  
 1.383943e-05 -1.299781e-05 0.000000e+00  
 1.363966e-05 -1.368539e-05 0.000000e+00  
 1.355279e-05 -1.347280e-05 0.000000e+00  
 1.327783e-05 -1.374133e-05 0.000000e+00  
 1.405524e-05 -1.312526e-05 0.000000e+00  
 1.445231e-05 -1.274262e-05 0.000000e+00  
 1.397130e-05 -1.348057e-05 0.000000e+00  
 1.415451e-05 -1.344557e-05 0.000000e+00  
 1.482503e-05 -1.320563e-05 0.000000e+00  
 1.502492e-05 -1.289102e-05 0.000000e+00  
 1.488591e-05 -1.225407e-05 0.000000e+00  
 1.030436e-05 -1.821370e-05 0.000000e+00  
 9.803997e-06 -1.874501e-05 0.000000e+00  
 1.038954e-05 -1.813776e-05 0.000000e+00  
 8.774335e-06 -2.015959e-05 0.000000e+00  
 9.107380e-06 -1.987498e-05 0.000000e+00  
 8.883601e-06 -1.996126e-05 0.000000e+00  
 1.008256e-05 -1.862032e-05 0.000000e+00  
 9.551670e-06 -1.914122e-05 0.000000e+00  
 9.425955e-06 -1.948296e-05 0.000000e+00  
 9.777354e-06 -1.904879e-05 0.000000e+00  
 9.238489e-06 -1.955092e-05 0.000000e+00  
 8.425873e-06 -2.061713e-05 0.000000e+00  
 8.504762e-06 -2.049885e-05 0.000000e+00  
 9.366466e-06 -1.986394e-05 0.000000e+00  
 8.893346e-06 -2.036906e-05 0.000000e+00  
 8.210358e-06 -2.090614e-05 0.000000e+00  
 7.977912e-06 -2.108792e-05 0.000000e+00  
 8.665246e-06 -2.063118e-05 0.000000e+00  
 8.673922e-06 -2.080612e-05 0.000000e+00  
 7.798176e-06 -2.128604e-05 0.000000e+00  
 6.938429e-06 -2.164143e-05 0.000000e+00  
 7.911220e-06 -2.125377e-05 0.000000e+00  
 7.133115e-06 -2.155422e-05 0.000000e+00  
 6.398874e-06 -2.173884e-05 0.000000e+00  
 7.022810e-06 -2.144802e-05 0.000000e+00  
 6.252609e-06 -2.153120e-05 0.000000e+00  
 6.842381e-06 -2.110444e-05 0.000000e+00  
 1.147719e-05 -1.678473e-05 0.000000e+00  
 1.169336e-05 -1.644215e-05 0.000000e+00  
 1.446843e-05 -1.373446e-05 0.000000e+00  
 1.244449e-05 -1.578901e-05 0.000000e+00  
 1.265117e-05 -1.549988e-05 0.000000e+00  
 1.358475e-05 -1.458796e-05 0.000000e+00  
 1.336554e-05 -1.488783e-05 0.000000e+00  
 1.425737e-05 -1.402630e-05 0.000000e+00  
 1.189138e-05 -1.652022e-05 0.000000e+00  
 1.167840e-05 -1.689035e-05 0.000000e+00  
 1.179104e-05 -1.677551e-05 0.000000e+00  
 1.116352e-05 -1.756283e-05 0.000000e+00  
 1.176693e-05 -1.698677e-05 0.000000e+00  
 1.531718e-05 -1.291914e-05 0.000000e+00  
 1.514807e-05 -1.318485e-05 0.000000e+00  
 1.513961e-05 -1.229627e-05 0.000000e+00  
 1.549456e-05 -1.199454e-05 0.000000e+00  
 1.485318e-05 -1.273197e-05 0.000000e+00  
 1.555115e-05 -1.213577e-05 0.000000e+00  
 1.530228e-05 -1.267059e-05 0.000000e+00  
 1.551873e-05 -1.238361e-05 0.000000e+00  
 1.595333e-05 -1.242052e-05 0.000000e+00  
 1.609187e-05 -1.218738e-05 0.000000e+00  
 1.616158e-05 -1.156952e-05 0.000000e+00  
 1.650334e-05 -1.129626e-05 0.000000e+00  
 1.589448e-05 -1.157836e-05 0.000000e+00  
 9.564890e-06 -1.973061e-05 0.000000e+00  
 1.077292e-05 -1.806091e-05 0.000000e+00  
 1.116339e-05 -1.768004e-05 0.000000e+00  
 1.032526e-05 -1.910522e-05 0.000000e+00  
 1.000890e-05 -1.920963e-05 0.000000e+00  
 1.041682e-05 -1.883610e-05 0.000000e+00  
 1.020016e-05 -1.889890e-05 0.000000e+00  
 1.049701e-05 -1.848292e-05 0.000000e+00  
 1.094034e-05 -1.805679e-05 0.000000e+00  
 1.068992e-05 -1.843901e-05 0.000000e+00  
 1.014115e-05 -1.947416e-05 0.000000e+00  
 9.786834e-06 -1.979242e-05 0.000000e+00  
 9.698861e-06 -2.008805e-05 0.000000e+00  
 1.034923e-05 -1.958806e-05 0.000000e+00  
 9.287829e-06 -2.050316e-05 0.000000e+00  
 9.959822e-06 -2.005611e-05 0.000000e+00  
 1.001346e-05 -2.029979e-05 0.000000e+00  
 8.995932e-06 -2.083071e-05 0.000000e+00  
 9.307966e-06 -2.077494e-05 0.000000e+00  
 8.598264e-06 -2.105907e-05 0.000000e+00  
 9.022460e-06 -2.092438e-05 0.000000e+00  
 8.387024e-06 -2.108525e-05 0.000000e+00  
 9.273502e-06 -2.071408e-05 0.000000e+00  
 1.291195e-05 -1.553867e-05 0.000000e+00  
 1.275036e-05 -1.576011e-05 0.000000e+00  
 1.564536e-05 -1.288882e-05 0.000000e+00  
 1.545475e-05 -1.316939e-05 0.000000e+00  
 1.369409e-05 -1.485734e-05 0.000000e+00  
 1.479248e-05 -1.371535e-05 0.000000e+00  
 1.457444e-05 -1.401181e-05 0.000000e+00  
 1.389796e-05 -1.458843e-05 0.000000e+00  
 1.282416e-05 -1.593179e-05 0.000000e+00  
 1.314598e-05 -1.555870e-05 0.000000e+00  
 1.303202e-05 -1.586150e-05 0.000000e+00  
 1.238613e-05 -1.650861e-05 0.000000e+00  
 1.206364e-05 -1.697083e-05 0.000000e+00  
 1.253645e-05 -1.649087e-05 0.000000e+00  
 1.630967e-05 -1.236073e-05 0.000000e+00  
 1.646412e-05 -1.211200e-05 0.000000e+00  
 1.663501e-05 -1.135045e-05 0.000000e+00  
 1.618015e-05 -1.173713e-05 0.000000e+00  
 1.641565e-05 -1.163878e-05 0.000000e+00  
 1.613625e-05 -1.193686e-05 0.000000e+00  
 1.662596e-05 -1.177193e-05 0.000000e+00  
 1.671131e-05 -1.162192e-05 0.000000e+00  
 1.710724e-05 -1.161780e-05 0.000000e+00  
 1.723139e-05 -1.141030e-05 0.000000e+00  
 1.725478e-05 -1.095686e-05 0.000000e+00  
 1.769393e-05 -1.062472e-05 0.000000e+00  
 1.720516e-05 -1.086251e-05 0.000000e+00  
 1.749213e-05 -1.065233e-05 0.000000e+00  
 1.693693e-05 -1.092117e-05 0.000000e+00  
 1.792759e-05 -1.033409e-05 0.000000e+00  
 1.091467e-05 -1.894215e-05 0.000000e+00  
 1.097399e-05 -1.865273e-05 0.000000e+00  
 1.136929e-05 -1.851274e-05 0.000000e+00  
 1.178885e-05 -1.738120e-05 0.000000e+00  
 1.218853e-05 -1.698008e-05 0.000000e+00  
 1.157785e-05 -1.809516e-05 0.000000e+00  
 1.197383e-05 -1.735689e-05 0.000000e+00  
 1.129453e-05 -1.818056e-05 0.000000e+00  
 1.174844e-05 -1.773731e-05 0.000000e+00  
 1.155312e-05 -1.777400e-05 0.000000e+00  
 1.118001e-05 -1.908683e-05 0.000000e+00  
 1.166124e-05 -1.864816e-05 0.000000e+00  
 1.171775e-05 -1.897202e-05 0.000000e+00  
 1.099313e-05 -1.953208e-05 0.000000e+00  
 1.060645e-05 -2.004129e-05 0.000000e+00  
 1.150180e-05 -1.947999e-05 0.000000e+00  
 1.069671e-05 -2.028422e-05 0.000000e+00  
 1.137741e-05 -1.990582e-05 0.000000e+00  
 1.128553e-05 -2.019877e-05 0.000000e+00  
 1.068480e-05 -2.043915e-05 0.000000e+00  
 1.164310e-05 -2.022394e-05 0.000000e+00  
 1.678942e-05 -1.206473e-05 0.000000e+00  
 1.392313e-05 -1.490815e-05 0.000000e+00  