# vtk DataFile Version 1.0 
PolyMesh 
ASCII 
 
DATASET POLYDATA 
 
POINTS 45 float 
5.000000e+00 2.000000e+00 0.000000e+00  
 5.000000e+00 1.279383e+00 0.000000e+00  
 3.868255e+00 2.000000e+00 0.000000e+00  
 2.836849e+00 2.000000e+00 0.000000e+00  
 3.888088e+00 1.330746e+00 0.000000e+00  
 4.120963e+00 1.105406e+00 0.000000e+00  
 4.113598e+00 4.738479e-01 0.000000e+00  
 5.000000e+00 2.217183e-01 0.000000e+00  
 5.000000e+00 -3.273890e-01 0.000000e+00  
 5.000000e+00 -1.192399e+00 0.000000e+00  
 5.000000e+00 -2.000000e+00 0.000000e+00  
 1.863324e+00 2.000000e+00 0.000000e+00  
 9.385734e-01 2.000000e+00 0.000000e+00  
 2.608383e-10 1.056682e+00 0.000000e+00  
 2.608384e-10 2.000000e+00 0.000000e+00  
 3.010791e+00 9.867410e-01 0.000000e+00  
 1.922231e+00 1.045644e+00 0.000000e+00  
 2.852353e+00 1.137109e+00 0.000000e+00  
 3.053810e+00 6.243545e-01 0.000000e+00  
 3.797842e+00 1.887071e-01 0.000000e+00  
 3.962206e+00 -4.925780e-01 0.000000e+00  
 3.772501e+00 -2.404910e-01 0.000000e+00  
 3.933658e+00 -1.101704e+00 0.000000e+00  
 4.026709e+00 -1.216147e+00 0.000000e+00  
 4.015127e+00 -2.000000e+00 0.000000e+00  
 1.869004e+00 9.818046e-01 0.000000e+00  
 9.814693e-01 9.843732e-01 0.000000e+00  
 7.871862e-01 7.996762e-01 0.000000e+00  
 1.999494e+00 1.571524e-01 0.000000e+00  
 2.605537e+00 5.865573e-02 0.000000e+00  
 2.876080e+00 -4.661693e-01 0.000000e+00  
 2.764208e+00 -8.691353e-01 0.000000e+00  
 3.063444e+00 -1.232626e+00 0.000000e+00  
 2.977339e+00 -2.000000e+00 0.000000e+00  
 1.719131e+00 -1.029883e-01 0.000000e+00  
 1.056228e+00 -5.711220e-03 0.000000e+00  
 1.875626e+00 -9.654886e-01 0.000000e+00  
 2.011083e+00 -1.055023e+00 0.000000e+00  
 2.070147e+00 -2.000000e+00 0.000000e+00  
 1.052381e+00 -1.171342e+00 0.000000e+00  
 7.079815e-01 -8.481687e-01 0.000000e+00  
 1.000395e+00 -2.000000e+00 0.000000e+00  
 5.998436e-01 -8.498546e-01 0.000000e+00  
 -2.580667e-09 -2.000000e+00 0.000000e+00  
 -2.580667e-09 -1.059091e+00 0.000000e+00  
  
 POLYGONS 20 126 
 5 17  15  4  2  3   
 5 30  21  19  18  29   
 6 43  41  39  40  42  44   
 6 31  32  22  20  21  30   
 6 21  20  8  7  6  19   
 5 13  27  26  12  14   
 5 22  23  9  8  20   
 6 35  34  28  25  26  27   
 7 36  37  31  30  29  28  34   
 6 18  19  6  5  4  15   
 5 41  38  37  36  39   
 5 40  39  36  34  35   
 5 38  33  32  31  37   
 5 33  24  23  22  32   
 7 28  29  18  15  17  16  25   
 4 16  17  3  11   
 5 26  25  16  11  12   
 4 6  7  1  5   
 5 4  5  1  0  2   
 4 24  10  9  23   
  
 POINT_DATA 45 
 VECTORS Displacement float 
 6.336444e-05 -4.728099e-06 0.000000e+00  
 6.343968e-05 -2.600000e-06 0.000000e+00  
 5.178483e-05 -4.511849e-06 0.000000e+00  
 4.000160e-05 -4.205169e-06 0.000000e+00  
 5.228308e-05 -2.479561e-06 0.000000e+00  
 5.480881e-05 -2.024922e-06 0.000000e+00  
 5.503824e-05 -4.654474e-07 0.000000e+00  
 6.371195e-05 0.000000e+00 0.000000e+00  
 6.360598e-05 1.260394e-06 0.000000e+00  
 6.315090e-05 3.410506e-06 0.000000e+00  
 6.284219e-05 5.758185e-06 0.000000e+00  
 2.708129e-05 -5.348981e-06 0.000000e+00  
 1.302401e-05 -1.086946e-05 0.000000e+00  
 0.000000e+00 -1.260875e-05 0.000000e+00  
 0.000000e+00 -1.778720e-05 0.000000e+00  
 4.393452e-05 -1.049123e-06 0.000000e+00  
 3.246026e-05 -1.494538e-06 0.000000e+00  
 4.193824e-05 -1.372299e-06 0.000000e+00  
 4.520852e-05 -1.968978e-07 0.000000e+00  
 5.215525e-05 2.097707e-07 0.000000e+00  
 5.344656e-05 1.690382e-06 0.000000e+00  
 5.185906e-05 1.199955e-06 0.000000e+00  
 5.263219e-05 3.193724e-06 0.000000e+00  
 5.338893e-05 3.535574e-06 0.000000e+00  
 5.285377e-05 5.856167e-06 0.000000e+00  
 3.289028e-05 -1.010201e-06 0.000000e+00  
 2.160423e-05 -5.386050e-06 0.000000e+00  
 2.449897e-05 -6.164942e-06 0.000000e+00  
 3.830241e-05 1.154694e-06 0.000000e+00  
 4.220423e-05 6.029036e-07 0.000000e+00  
 4.371822e-05 1.347897e-06 0.000000e+00  
 4.157465e-05 2.223607e-06 0.000000e+00  
 4.354341e-05 3.218712e-06 0.000000e+00  
 4.139788e-05 5.641002e-06 0.000000e+00  
 3.707716e-05 5.672623e-07 0.000000e+00  
 3.589442e-05 8.287230e-07 0.000000e+00  
 3.258202e-05 2.353694e-06 0.000000e+00  
 3.316208e-05 2.909495e-06 0.000000e+00  
 2.957184e-05 6.260171e-06 0.000000e+00  
 2.051309e-05 7.615061e-06 0.000000e+00  
 2.126067e-05 9.187015e-06 0.000000e+00  
 1.364378e-05 1.204916e-05 0.000000e+00  
 1.918841e-05 9.310164e-06 0.000000e+00  
 0.000000e+00 1.962251e-05 0.000000e+00  
 0.000000e+00 1.466099e-05 0.000000e+00  
  
 