# vtk DataFile Version 1.0 
PolyMesh 
ASCII 
 
DATASET POLYDATA 
 
POINTS 13952 float 
-5.205600e-12 -2.000000e+00 0.000000e+00  
 -5.205600e-12 -1.952671e+00 0.000000e+00  
 4.316258e-02 -1.947165e+00 0.000000e+00  
 6.657678e-02 -1.976500e+00 0.000000e+00  
 6.591123e-02 -2.000000e+00 0.000000e+00  
 -4.388900e-12 -1.893706e+00 0.000000e+00  
 5.517412e-02 -1.916887e+00 0.000000e+00  
 4.320545e-02 -1.895343e+00 0.000000e+00  
 -4.429000e-12 -1.840801e+00 0.000000e+00  
 1.335311e-01 -2.000000e+00 0.000000e+00  
 9.899662e-02 -1.918286e+00 0.000000e+00  
 1.309554e-01 -1.959677e+00 0.000000e+00  
 1.068804e-01 -1.945909e+00 0.000000e+00  
 1.915924e-01 -2.000000e+00 0.000000e+00  
 -4.429000e-12 -1.788339e+00 0.000000e+00  
 5.896228e-02 -1.865031e+00 0.000000e+00  
 4.618843e-02 -1.841009e+00 0.000000e+00  
 1.085337e-01 -1.901475e+00 0.000000e+00  
 9.221485e-02 -1.867102e+00 0.000000e+00  
 5.875132e-02 -1.814179e+00 0.000000e+00  
 4.595763e-02 -1.787603e+00 0.000000e+00  
 1.624009e-01 -1.940770e+00 0.000000e+00  
 1.920815e-01 -1.959495e+00 0.000000e+00  
 1.627368e-01 -1.907925e+00 0.000000e+00  
 1.459576e-01 -1.894844e+00 0.000000e+00  
 2.518194e-01 -2.000000e+00 0.000000e+00  
 -4.286600e-12 -1.734195e+00 0.000000e+00  
 2.222399e-01 -1.941746e+00 0.000000e+00  
 2.523209e-01 -1.961764e+00 0.000000e+00  
 5.828951e-02 -1.763777e+00 0.000000e+00  
 4.083510e-02 -1.733064e+00 0.000000e+00  
 1.035375e-01 -1.814088e+00 0.000000e+00  
 1.124059e-01 -1.839411e+00 0.000000e+00  
 1.489812e-01 -1.850174e+00 0.000000e+00  
 1.131077e-01 -1.794885e+00 0.000000e+00  
 9.261621e-02 -1.759909e+00 0.000000e+00  
 2.234623e-01 -1.912097e+00 0.000000e+00  
 1.987372e-01 -1.893586e+00 0.000000e+00  
 1.666956e-01 -1.839380e+00 0.000000e+00  
 2.013853e-01 -1.860233e+00 0.000000e+00  
 -4.028000e-12 -1.677051e+00 0.000000e+00  
 -3.858200e-12 -1.618201e+00 0.000000e+00  
 3.132388e-01 -2.000000e+00 0.000000e+00  
 2.828128e-01 -1.942877e+00 0.000000e+00  
 3.133592e-01 -1.963617e+00 0.000000e+00  
 5.643737e-02 -1.706581e+00 0.000000e+00  
 3.693820e-02 -1.676406e+00 0.000000e+00  
 2.560703e-01 -1.895722e+00 0.000000e+00  
 2.837091e-01 -1.915483e+00 0.000000e+00  
 8.416364e-02 -1.704620e+00 0.000000e+00  
 1.059717e-01 -1.735209e+00 0.000000e+00  
 1.710106e-01 -1.810675e+00 0.000000e+00  
 1.474576e-01 -1.786611e+00 0.000000e+00  
 1.560785e-01 -1.756311e+00 0.000000e+00  
 1.328852e-01 -1.731238e+00 0.000000e+00  
 2.579205e-01 -1.865278e+00 0.000000e+00  
 2.285812e-01 -1.845286e+00 0.000000e+00  
 2.068900e-01 -1.795905e+00 0.000000e+00  
 2.309154e-01 -1.815876e+00 0.000000e+00  
 5.508020e-02 -1.647729e+00 0.000000e+00  
 3.465250e-02 -1.617880e+00 0.000000e+00  
 -3.870200e-12 -1.558221e+00 0.000000e+00  
 5.423474e-02 -1.588578e+00 0.000000e+00  
 3.419254e-02 -1.558576e+00 0.000000e+00  
 3.748976e-01 -2.000000e+00 0.000000e+00  
 3.442952e-01 -1.943003e+00 0.000000e+00  
 3.748856e-01 -1.963499e+00 0.000000e+00  
 3.442330e-01 -1.917953e+00 0.000000e+00  
 3.146419e-01 -1.897757e+00 0.000000e+00  
 1.010283e-01 -1.675293e+00 0.000000e+00  
 8.012300e-02 -1.646763e+00 0.000000e+00  
 2.871719e-01 -1.849690e+00 0.000000e+00  
 3.159395e-01 -1.868728e+00 0.000000e+00  
 1.263756e-01 -1.673565e+00 0.000000e+00  
 1.474441e-01 -1.698656e+00 0.000000e+00  
 1.890191e-01 -1.746931e+00 0.000000e+00  
 2.096820e-01 -1.765836e+00 0.000000e+00  
 1.940437e-01 -1.717415e+00 0.000000e+00  
 1.736444e-01 -1.695574e+00 0.000000e+00  
 2.890160e-01 -1.817831e+00 0.000000e+00  
 2.640417e-01 -1.800754e+00 0.000000e+00  
 2.458024e-01 -1.752553e+00 0.000000e+00  
 2.650794e-01 -1.765278e+00 0.000000e+00  
 4.362094e-01 -2.000000e+00 0.000000e+00  
 -3.979900e-12 -1.498981e+00 0.000000e+00  
 9.802537e-02 -1.616908e+00 0.000000e+00  
 7.925616e-02 -1.588389e+00 0.000000e+00  
 5.550030e-02 -1.528555e+00 0.000000e+00  
 3.668620e-02 -1.499390e+00 0.000000e+00  
 9.761876e-02 -1.560076e+00 0.000000e+00  
 7.817630e-02 -1.529580e+00 0.000000e+00  
 4.052948e-01 -1.943247e+00 0.000000e+00  
 4.364454e-01 -1.963046e+00 0.000000e+00  
 3.754659e-01 -1.897019e+00 0.000000e+00  
 4.050123e-01 -1.916458e+00 0.000000e+00  
 3.444399e-01 -1.852472e+00 0.000000e+00  
 3.749153e-01 -1.873024e+00 0.000000e+00  
 1.267587e-01 -1.616541e+00 0.000000e+00  
 1.430020e-01 -1.641145e+00 0.000000e+00  
 3.183664e-01 -1.803624e+00 0.000000e+00  
 3.467281e-01 -1.823825e+00 0.000000e+00  
 1.755561e-01 -1.641658e+00 0.000000e+00  
 1.882237e-01 -1.661919e+00 0.000000e+00  
 2.438133e-01 -1.709509e+00 0.000000e+00  
 2.345026e-01 -1.704211e+00 0.000000e+00  
 2.237289e-01 -1.664287e+00 0.000000e+00  
 3.218244e-01 -1.773655e+00 0.000000e+00  
 2.964483e-01 -1.752557e+00 0.000000e+00  
 2.747676e-01 -1.699857e+00 0.000000e+00  
 3.015114e-01 -1.723511e+00 0.000000e+00  
 4.639779e-01 -1.944474e+00 0.000000e+00  
 4.983494e-01 -1.963495e+00 0.000000e+00  
 4.982924e-01 -2.000000e+00 0.000000e+00  
 5.594150e-02 -1.469578e+00 0.000000e+00  
 3.936476e-02 -1.441373e+00 0.000000e+00  
 -4.154300e-12 -1.440662e+00 0.000000e+00  
 1.245099e-01 -1.559493e+00 0.000000e+00  
 1.425849e-01 -1.587383e+00 0.000000e+00  
 1.013754e-01 -1.499847e+00 0.000000e+00  
 8.513067e-02 -1.471103e+00 0.000000e+00  
 1.228865e-01 -1.502520e+00 0.000000e+00  
 1.407195e-01 -1.532783e+00 0.000000e+00  
 4.642229e-01 -1.913101e+00 0.000000e+00  
 4.357092e-01 -1.896774e+00 0.000000e+00  
 4.064293e-01 -1.850117e+00 0.000000e+00  
 4.338760e-01 -1.867264e+00 0.000000e+00  
 3.742952e-01 -1.809063e+00 0.000000e+00  
 4.045676e-01 -1.829617e+00 0.000000e+00  
 1.905722e-01 -1.610394e+00 0.000000e+00  
 1.726644e-01 -1.586036e+00 0.000000e+00  
 3.552688e-01 -1.759541e+00 0.000000e+00  
 3.774033e-01 -1.781388e+00 0.000000e+00  
 2.417431e-01 -1.642650e+00 0.000000e+00  
 2.186064e-01 -1.608497e+00 0.000000e+00  
 2.579791e-01 -1.641872e+00 0.000000e+00  
 2.843204e-01 -1.668668e+00 0.000000e+00  
 3.329469e-01 -1.710447e+00 0.000000e+00  
 3.591699e-01 -1.735915e+00 0.000000e+00  
 3.128440e-01 -1.660837e+00 0.000000e+00  
 3.381407e-01 -1.685826e+00 0.000000e+00  
 4.900042e-01 -1.898161e+00 0.000000e+00  
 5.199318e-01 -1.911733e+00 0.000000e+00  
 5.210304e-01 -1.945666e+00 0.000000e+00  
 5.605749e-01 -1.960775e+00 0.000000e+00  
 5.620149e-01 -2.000000e+00 0.000000e+00  
 -4.355800e-12 -1.383456e+00 0.000000e+00  
 1.034769e-01 -1.443221e+00 0.000000e+00  
 9.146958e-02 -1.414842e+00 0.000000e+00  
 5.731720e-02 -1.412539e+00 0.000000e+00  
 4.256910e-02 -1.384361e+00 0.000000e+00  
 -4.519700e-12 -1.327046e+00 0.000000e+00  
 -4.597000e-12 -1.271281e+00 0.000000e+00  
 -4.597000e-12 -1.215912e+00 0.000000e+00  
 1.878427e-01 -1.553248e+00 0.000000e+00  
 1.692218e-01 -1.531653e+00 0.000000e+00  
 1.434139e-01 -1.448481e+00 0.000000e+00  
 1.852337e-01 -1.491780e+00 0.000000e+00  
 1.488458e-01 -1.474131e+00 0.000000e+00  
 4.895947e-01 -1.856587e+00 0.000000e+00  
 4.666720e-01 -1.847051e+00 0.000000e+00  
 4.567572e-01 -1.807522e+00 0.000000e+00  
 4.354959e-01 -1.802598e+00 0.000000e+00  
 4.172932e-01 -1.766958e+00 0.000000e+00  
 2.362857e-01 -1.579197e+00 0.000000e+00  
 2.132701e-01 -1.550948e+00 0.000000e+00  
 4.223942e-01 -1.752141e+00 0.000000e+00  
 3.909763e-01 -1.721026e+00 0.000000e+00  
 2.824296e-01 -1.605871e+00 0.000000e+00  
 2.578552e-01 -1.577460e+00 0.000000e+00  
 3.223022e-01 -1.631415e+00 0.000000e+00  
 2.982847e-01 -1.605521e+00 0.000000e+00  
 3.681255e-01 -1.673305e+00 0.000000e+00  
 3.966712e-01 -1.695401e+00 0.000000e+00  
 3.728922e-01 -1.641658e+00 0.000000e+00  
 3.502092e-01 -1.624456e+00 0.000000e+00  
 5.093528e-01 -1.846971e+00 0.000000e+00  
 5.423542e-01 -1.862940e+00 0.000000e+00  
 5.447352e-01 -1.895362e+00 0.000000e+00  
 5.702779e-01 -1.906383e+00 0.000000e+00  
 5.763066e-01 -1.945611e+00 0.000000e+00  
 6.226860e-01 -2.000000e+00 0.000000e+00  
 6.181830e-01 -1.949750e+00 0.000000e+00  
 6.240952e-01 -1.955922e+00 0.000000e+00  
 6.851227e-01 -2.000000e+00 0.000000e+00  
 5.953958e-02 -1.356261e+00 0.000000e+00  
 4.445267e-02 -1.327818e+00 0.000000e+00  
 1.562926e-01 -1.431534e+00 0.000000e+00  
 1.414151e-01 -1.391033e+00 0.000000e+00  
 1.086426e-01 -1.390075e+00 0.000000e+00  
 9.315164e-02 -1.357561e+00 0.000000e+00  
 6.126343e-02 -1.298162e+00 0.000000e+00  
 4.710303e-02 -1.271672e+00 0.000000e+00  
 6.176974e-02 -1.241993e+00 0.000000e+00  
 4.698799e-02 -1.215677e+00 0.000000e+00  
 6.187280e-02 -1.184449e+00 0.000000e+00  
 4.456791e-02 -1.159543e+00 0.000000e+00  
 -4.550200e-12 -1.159712e+00 0.000000e+00  
 -4.514300e-12 -1.105397e+00 0.000000e+00  
 1.983032e-01 -1.487299e+00 0.000000e+00  
 2.297286e-01 -1.520057e+00 0.000000e+00  
 1.912713e-01 -1.429285e+00 0.000000e+00  
 2.096557e-01 -1.465430e+00 0.000000e+00  
 4.810804e-01 -1.788445e+00 0.000000e+00  
 5.181907e-01 -1.802441e+00 0.000000e+00  
 4.777580e-01 -1.756419e+00 0.000000e+00  
 4.448330e-01 -1.741046e+00 0.000000e+00  
 2.756505e-01 -1.546761e+00 0.000000e+00  
 2.551267e-01 -1.515348e+00 0.000000e+00  
 4.505094e-01 -1.700878e+00 0.000000e+00  
 4.192565e-01 -1.685075e+00 0.000000e+00  
 3.086690e-01 -1.545959e+00 0.000000e+00  
 3.211776e-01 -1.571642e+00 0.000000e+00  
 3.588174e-01 -1.579906e+00 0.000000e+00  
 4.242989e-01 -1.645437e+00 0.000000e+00  
 4.016206e-01 -1.630618e+00 0.000000e+00  
 3.647103e-01 -1.576558e+00 0.000000e+00  
 4.040230e-01 -1.595290e+00 0.000000e+00  
 5.233277e-01 -1.800002e+00 0.000000e+00  
 5.693410e-01 -1.842863e+00 0.000000e+00  
 5.660545e-01 -1.816635e+00 0.000000e+00  
 5.964788e-01 -1.856473e+00 0.000000e+00  
 6.232368e-01 -1.900680e+00 0.000000e+00  
 6.003625e-01 -1.888444e+00 0.000000e+00  
 6.666409e-01 -1.947280e+00 0.000000e+00  
 6.862464e-01 -1.965114e+00 0.000000e+00  
 6.466279e-01 -1.893181e+00 0.000000e+00  
 6.718980e-01 -1.909052e+00 0.000000e+00  
 7.217216e-01 -1.947480e+00 0.000000e+00  
 7.496161e-01 -1.970704e+00 0.000000e+00  
 7.495791e-01 -2.000000e+00 0.000000e+00  
[...]
 POINT_DATA 13952 
 VECTORS Displacement float 
 0.000000e+00 2.559233e-05 0.000000e+00  
 0.000000e+00 2.544792e-05 0.000000e+00  
 3.395329e-07 2.539851e-05 0.000000e+00  
 4.755610e-07 2.546037e-05 0.000000e+00  
 4.298681e-07 2.553614e-05 0.000000e+00  
 0.000000e+00 2.523838e-05 0.000000e+00  
 4.723314e-07 2.527619e-05 0.000000e+00  
 3.898379e-07 2.521515e-05 0.000000e+00  
 0.000000e+00 2.503259e-05 0.000000e+00  
 8.761482e-07 2.534378e-05 0.000000e+00  
 8.478349e-07 2.518581e-05 0.000000e+00  
 9.999536e-07 2.522527e-05 0.000000e+00  
 8.479086e-07 2.525939e-05 0.000000e+00  
 1.279312e-06 2.508376e-05 0.000000e+00  
 0.000000e+00 2.481524e-05 0.000000e+00  
 5.682307e-07 2.507605e-05 0.000000e+00  
 4.658487e-07 2.500024e-05 0.000000e+00  
 9.694946e-07 2.509459e-05 0.000000e+00  
 8.867664e-07 2.500867e-05 0.000000e+00  
 6.216438e-07 2.486995e-05 0.000000e+00  
 5.071939e-07 2.477893e-05 0.000000e+00  
 1.319728e-06 2.502873e-05 0.000000e+00  
 1.483835e-06 2.494604e-05 0.000000e+00  
 1.441412e-06 2.490777e-05 0.000000e+00  
 1.329434e-06 2.493054e-05 0.000000e+00  
 1.718384e-06 2.472347e-05 0.000000e+00  
 0.000000e+00 2.458145e-05 0.000000e+00  
 1.821995e-06 2.470963e-05 0.000000e+00  
 1.966033e-06 2.458643e-05 0.000000e+00  
 6.663583e-07 2.465670e-05 0.000000e+00  
 4.862005e-07 2.454898e-05 0.000000e+00  
 1.098044e-06 2.476225e-05 0.000000e+00  
 1.141856e-06 2.483702e-05 0.000000e+00  
 1.487628e-06 2.474018e-05 0.000000e+00  
 1.238067e-06 2.464851e-05 0.000000e+00  
 1.065615e-06 2.455998e-05 0.000000e+00  
 1.978632e-06 2.459070e-05 0.000000e+00  
 1.828820e-06 2.466470e-05 0.000000e+00  
 1.701164e-06 2.461471e-05 0.000000e+00  
 1.984664e-06 2.451454e-05 0.000000e+00  
 0.000000e+00 2.432761e-05 0.000000e+00  
 0.000000e+00 2.406087e-05 0.000000e+00  
 2.194530e-06 2.426715e-05 0.000000e+00  
 2.347449e-06 2.429584e-05 0.000000e+00  
 2.476922e-06 2.413176e-05 0.000000e+00  
 6.952453e-07 2.440775e-05 0.000000e+00  
 4.714307e-07 2.430137e-05 0.000000e+00  
 2.368844e-06 2.430694e-05 0.000000e+00  
 2.524337e-06 2.418194e-05 0.000000e+00  
 1.039955e-06 2.433732e-05 0.000000e+00  
 1.261459e-06 2.441042e-05 0.000000e+00  
 1.832460e-06 2.447068e-05 0.000000e+00  
 1.637393e-06 2.447761e-05 0.000000e+00  
 1.810755e-06 2.430361e-05 0.000000e+00  
 1.591504e-06 2.429294e-05 0.000000e+00  
 2.539292e-06 2.416729e-05 0.000000e+00  
 2.324847e-06 2.428455e-05 0.000000e+00  
 2.276657e-06 2.420557e-05 0.000000e+00  
 2.469224e-06 2.414150e-05 0.000000e+00  
 7.268767e-07 2.414421e-05 0.000000e+00  
 4.724708e-07 2.403817e-05 0.000000e+00  
 0.000000e+00 2.378459e-05 0.000000e+00  
 7.635557e-07 2.387370e-05 0.000000e+00  
 4.971093e-07 2.376482e-05 0.000000e+00  
 2.707766e-06 2.372615e-05 0.000000e+00  
 2.911723e-06 2.378458e-05 0.000000e+00  
 3.034611e-06 2.358293e-05 0.000000e+00  
 3.094377e-06 2.368245e-05 0.000000e+00  
 2.935130e-06 2.385731e-05 0.000000e+00  
 1.293606e-06 2.415554e-05 0.000000e+00  
 1.058990e-06 2.408516e-05 0.000000e+00  
 2.924598e-06 2.387660e-05 0.000000e+00  
 3.124158e-06 2.372153e-05 0.000000e+00  
 1.622697e-06 2.405638e-05 0.000000e+00  
 1.840211e-06 2.408213e-05 0.000000e+00  
 2.225464e-06 2.408953e-05 0.000000e+00  
 2.410223e-06 2.405353e-05 0.000000e+00  
 2.373289e-06 2.392447e-05 0.000000e+00  
 2.178164e-06 2.393734e-05 0.000000e+00  
 3.105515e-06 2.371938e-05 0.000000e+00  
 2.903279e-06 2.383704e-05 0.000000e+00  
 2.887146e-06 2.374897e-05 0.000000e+00  
 3.066948e-06 2.366579e-05 0.000000e+00  
 3.257656e-06 2.311577e-05 0.000000e+00  
 0.000000e+00 2.350662e-05 0.000000e+00  
 1.339580e-06 2.389580e-05 0.000000e+00  
 1.116363e-06 2.381777e-05 0.000000e+00  
 8.329341e-07 2.359134e-05 0.000000e+00  
 5.683328e-07 2.348334e-05 0.000000e+00  
 1.417457e-06 2.363105e-05 0.000000e+00  
 1.172286e-06 2.354431e-05 0.000000e+00  
 3.499995e-06 2.319928e-05 0.000000e+00  
 3.630443e-06 2.295857e-05 0.000000e+00  
 3.562252e-06 2.329745e-05 0.000000e+00  
 3.720523e-06 2.308635e-05 0.000000e+00  
 3.528286e-06 2.339328e-05 0.000000e+00  
 3.725604e-06 2.319534e-05 0.000000e+00  
 1.734176e-06 2.379012e-05 0.000000e+00  
 1.905695e-06 2.383510e-05 0.000000e+00  
 3.511752e-06 2.340394e-05 0.000000e+00  
 3.724630e-06 2.323967e-05 0.000000e+00  
 2.341332e-06 2.367432e-05 0.000000e+00  
 2.456133e-06 2.369799e-05 0.000000e+00  
 3.022069e-06 2.356101e-05 0.000000e+00  
 2.922939e-06 2.360250e-05 0.000000e+00  
 2.917387e-06 2.348388e-05 0.000000e+00  
 3.705883e-06 2.323073e-05 0.000000e+00  
 3.500496e-06 2.335159e-05 0.000000e+00  
 3.452891e-06 2.327583e-05 0.000000e+00  
 3.693238e-06 2.316683e-05 0.000000e+00  
 4.087065e-06 2.257635e-05 0.000000e+00  
 4.258807e-06 2.227044e-05 0.000000e+00  
 3.857523e-06 2.243423e-05 0.000000e+00  
 8.950067e-07 2.330852e-05 0.000000e+00  
 6.509852e-07 2.319920e-05 0.000000e+00  
 0.000000e+00 2.322562e-05 0.000000e+00  
 1.809573e-06 2.352945e-05 0.000000e+00  
 2.013173e-06 2.358330e-05 0.000000e+00  
 1.569244e-06 2.333163e-05 0.000000e+00  
 1.360157e-06 2.324379e-05 0.000000e+00  
 1.897384e-06 2.326136e-05 0.000000e+00  
 2.104444e-06 2.332918e-05 0.000000e+00  
 4.378457e-06 2.243091e-05 0.000000e+00  
 4.206611e-06 2.267197e-05 0.000000e+00  
 4.234037e-06 2.276754e-05 0.000000e+00  
 4.419038e-06 2.255337e-05 0.000000e+00  
 4.131608e-06 2.290056e-05 0.000000e+00  
 4.353053e-06 2.268846e-05 0.000000e+00  
 2.629867e-06 2.343757e-05 0.000000e+00  
 2.443187e-06 2.342340e-05 0.000000e+00  
 4.186522e-06 2.284756e-05 0.000000e+00  
 4.333744e-06 2.273392e-05 0.000000e+00  
 3.231137e-06 2.325165e-05 0.000000e+00  
 3.026438e-06 2.324690e-05 0.000000e+00  
 3.453424e-06 2.312353e-05 0.000000e+00  
 3.704417e-06 2.304169e-05 0.000000e+00  
 4.154972e-06 2.281675e-05 0.000000e+00  
 4.360662e-06 2.269086e-05 0.000000e+00  
 4.119419e-06 2.275133e-05 0.000000e+00  
 4.341382e-06 2.264195e-05 0.000000e+00  
 4.797822e-06 2.206226e-05 0.000000e+00  
 5.011929e-06 2.177072e-05 0.000000e+00  
 4.687316e-06 2.191943e-05 0.000000e+00  
 4.965688e-06 2.150983e-05 0.000000e+00  
 4.521903e-06 2.167910e-05 0.000000e+00  
 0.000000e+00 2.293823e-05 0.000000e+00  
 1.706263e-06 2.304489e-05 0.000000e+00  
 1.560657e-06 2.294399e-05 0.000000e+00  
 9.805910e-07 2.302379e-05 0.000000e+00  
 7.550262e-07 2.290691e-05 0.000000e+00  
 0.000000e+00 2.263669e-05 0.000000e+00  
 0.000000e+00 2.231063e-05 0.000000e+00  
 0.000000e+00 2.194513e-05 0.000000e+00  
 2.752172e-06 2.317453e-05 0.000000e+00  
 2.535060e-06 2.317640e-05 0.000000e+00  
 2.351219e-06 2.290078e-05 0.000000e+00  
 2.895184e-06 2.288491e-05 0.000000e+00  
 2.371346e-06 2.300080e-05 0.000000e+00  
 5.148474e-06 2.186370e-05 0.000000e+00  
 4.952825e-06 2.208547e-05 0.000000e+00  
 5.129064e-06 2.200144e-05 0.000000e+00  
 4.904016e-06 2.221803e-05 0.000000e+00  
 4.912973e-06 2.223964e-05 0.000000e+00  
 3.374989e-06 2.297494e-05 0.000000e+00  
 3.134449e-06 2.299719e-05 0.000000e+00  
 5.070282e-06 2.210650e-05 0.000000e+00  
 4.849729e-06 2.228584e-05 0.000000e+00  
 3.932692e-06 2.274033e-05 0.000000e+00  
 3.693059e-06 2.279862e-05 0.000000e+00  
 4.381358e-06 2.251137e-05 0.000000e+00  
 4.158354e-06 2.259878e-05 0.000000e+00  
 4.804925e-06 2.227522e-05 0.000000e+00  
 5.068736e-06 2.209000e-05 0.000000e+00  
 5.034911e-06 2.205667e-05 0.000000e+00  
 4.804531e-06 2.219913e-05 0.000000e+00  
 5.462577e-06 2.157609e-05 0.000000e+00  
 5.723882e-06 2.124859e-05 0.000000e+00  
 5.455192e-06 2.138478e-05 0.000000e+00  
 5.649355e-06 2.111785e-05 0.000000e+00  
 5.310860e-06 2.123840e-05 0.000000e+00  
 5.202701e-06 2.091926e-05 0.000000e+00  
 5.756577e-06 2.072297e-05 0.000000e+00  
 5.756582e-06 2.067879e-05 0.000000e+00  
 5.945397e-06 2.010717e-05 0.000000e+00  
 1.094481e-06 2.272670e-05 0.000000e+00  
 8.506343e-07 2.260007e-05 0.000000e+00  
 2.612261e-06 2.274598e-05 0.000000e+00  
 2.481980e-06 2.261179e-05 0.000000e+00  
 1.910039e-06 2.275454e-05 0.000000e+00  
 1.708621e-06 2.263807e-05 0.000000e+00  
 1.222867e-06 2.239719e-05 0.000000e+00  
 9.812746e-07 2.226626e-05 0.000000e+00  
 1.350993e-06 2.204545e-05 0.000000e+00  
 1.080046e-06 2.189558e-05 0.000000e+00  
 1.508619e-06 2.163343e-05 0.000000e+00  
 1.147287e-06 2.146438e-05 0.000000e+00  
 0.000000e+00 2.150995e-05 0.000000e+00  
 0.000000e+00 2.099388e-05 0.000000e+00  
 3.116446e-06 2.277833e-05 0.000000e+00  
 3.487924e-06 2.272241e-05 0.000000e+00  
 3.205225e-06 2.252289e-05 0.000000e+00  
 3.372168e-06 2.258707e-05 0.000000e+00  
 5.566833e-06 2.161526e-05 0.000000e+00  
 5.929975e-06 2.123459e-05 0.000000e+00  
 5.751688e-06 2.148386e-05 0.000000e+00  
 5.427519e-06 2.179155e-05 0.000000e+00  
 4.076785e-06 2.249073e-05 0.000000e+00  
 3.895377e-06 2.250022e-05 0.000000e+00  
 5.756916e-06 2.150738e-05 0.000000e+00  
 5.430956e-06 2.178264e-05 0.000000e+00  
 4.574632e-06 2.218796e-05 0.000000e+00  
 4.640940e-06 2.220560e-05 0.000000e+00  
 5.151559e-06 2.187078e-05 0.000000e+00  
 5.731001e-06 2.150691e-05 0.000000e+00  
 5.496674e-06 2.168280e-05 0.000000e+00  
 5.256022e-06 2.178977e-05 0.000000e+00  
 5.728204e-06 2.145851e-05 0.000000e+00  
 6.013043e-06 2.115703e-05 0.000000e+00  
 6.234422e-06 2.079922e-05 0.000000e+00  
 6.419314e-06 2.069997e-05 0.000000e+00  
 6.450314e-06 2.051812e-05 0.000000e+00  
 6.349874e-06 2.040093e-05 0.000000e+00  
 6.191177e-06 2.063751e-05 0.000000e+00  
 6.372546e-06 2.007231e-05 0.000000e+00  
 6.404084e-06 1.990640e-05 0.000000e+00  
 6.718824e-06 2.004923e-05 0.000000e+00  
 6.870319e-06 1.979556e-05 0.000000e+00  
 7.067746e-06 1.933142e-05 0.000000e+00  
 7.145756e-06 1.908235e-05 0.000000e+00  
 6.761129e-06 1.924732e-05 0.000000e+00  
 3.519217e-06 2.231547e-05 0.000000e+00  
 3.367346e-06 2.224092e-05 0.000000e+00  
 2.720136e-06 2.228182e-05 0.000000e+00  
 1.915668e-06 2.230398e-05 0.000000e+00  
 2.123918e-06 2.242109e-05 0.000000e+00  
 2.845921e-06 2.241602e-05 0.000000e+00  
 2.418559e-06 2.204172e-05 0.000000e+00  
 2.217963e-06 2.192142e-05 0.000000e+00  
 2.662195e-06 2.166596e-05 0.000000e+00  
 2.312955e-06 2.151987e-05 0.000000e+00  
 2.882324e-06 2.121278e-05 0.000000e+00  
 2.445403e-06 2.100476e-05 0.000000e+00  
 1.722046e-06 2.108352e-05 0.000000e+00  
 1.313941e-06 2.093427e-05 0.000000e+00  
 1.799604e-06 2.036203e-05 0.000000e+00  
 0.000000e+00 2.031012e-05 0.000000e+00  
 0.000000e+00 1.960396e-05 0.000000e+00  
 4.162215e-06 2.229175e-05 0.000000e+00  
 4.002648e-06 2.226622e-05 0.000000e+00  
 4.102224e-06 2.204562e-05 0.000000e+00  
 4.251153e-06 2.207957e-05 0.000000e+00  
 6.556680e-06 2.071095e-05 0.000000e+00  
 6.565456e-06 2.072398e-05 0.000000e+00  
 6.247041e-06 2.104182e-05 0.000000e+00  
 6.044823e-06 2.125252e-05 0.000000e+00  
 6.357032e-06 2.096343e-05 0.000000e+00  
 4.902216e-06 2.191956e-05 0.000000e+00  
 4.701399e-06 2.196502e-05 0.000000e+00  
 6.163192e-06 2.113894e-05 0.000000e+00  
 6.367225e-06 2.096679e-05 0.000000e+00  
 5.578956e-06 2.149561e-05 0.000000e+00  
 5.328653e-06 2.162491e-05 0.000000e+00  
 6.202179e-06 2.106513e-05 0.000000e+00  
 6.469624e-06 2.085979e-05 0.000000e+00  
 6.069578e-06 2.111579e-05 0.000000e+00  
 6.333539e-06 2.094170e-05 0.000000e+00  
 6.881657e-06 2.029848e-05 0.000000e+00  
 7.016937e-06 2.023586e-05 0.000000e+00  
 7.040841e-06 1.999030e-05 0.000000e+00  
 7.252690e-06 1.988947e-05 0.000000e+00  
 7.259041e-06 1.970535e-05 0.000000e+00  
 7.281442e-06 1.941313e-05 0.000000e+00  
 7.414240e-06 1.914735e-05 0.000000e+00  
 7.559412e-06 1.941867e-05 0.000000e+00  
 7.744941e-06 1.911208e-05 0.000000e+00  
 7.953854e-06 1.867478e-05 0.000000e+00  
 8.085752e-06 1.839368e-05 0.000000e+00  
 7.897059e-06 1.848459e-05 0.000000e+00  
 8.009083e-06 1.821006e-05 0.000000e+00  
 7.619855e-06 1.838139e-05 0.000000e+00  
 4.423566e-06 2.182392e-05 0.000000e+00  
 3.873040e-06 2.194588e-05 0.000000e+00  
 4.318195e-06 2.176645e-05 0.000000e+00  
 3.113408e-06 2.189187e-05 0.000000e+00  
 3.791309e-06 2.186544e-05 0.000000e+00  
 3.133011e-06 2.207084e-05 0.000000e+00  
 3.495483e-06 2.171220e-05 0.000000e+00  
 3.468502e-06 2.146195e-05 0.000000e+00  
 3.721430e-06 2.146954e-05 0.000000e+00  
 3.966530e-06 2.110067e-05 0.000000e+00  
 3.677602e-06 2.104659e-05 0.000000e+00  
 4.360811e-06 2.064029e-05 0.000000e+00  
 3.203082e-06 2.065054e-05 0.000000e+00  
 4.094608e-06 2.052905e-05 0.000000e+00  
 2.933521e-06 2.031063e-05 0.000000e+00  
 2.093315e-06 2.029541e-05 0.000000e+00  
 2.293913e-06 1.953594e-05 0.000000e+00  
 5.050815e-06 2.168514e-05 0.000000e+00  
 4.837176e-06 2.174375e-05 0.000000e+00  
 5.224771e-06 2.144127e-05 0.000000e+00  
 5.031125e-06 2.149828e-05 0.000000e+00  
 7.462873e-06 1.984541e-05 0.000000e+00  
 7.177716e-06 2.018708e-05 0.000000e+00  
 7.500284e-06 1.987139e-05 0.000000e+00  
 7.094032e-06 2.029770e-05 0.000000e+00  
 6.983389e-06 2.040193e-05 0.000000e+00  
 6.836211e-06 2.054982e-05 0.000000e+00  
 5.744221e-06 2.127529e-05 0.000000e+00  
 5.496008e-06 2.139288e-05 0.000000e+00  
 6.983952e-06 2.041525e-05 0.000000e+00  
 7.145692e-06 2.027448e-05 0.000000e+00  
 6.391226e-06 2.083400e-05 0.000000e+00  
 6.144635e-06 2.098335e-05 0.000000e+00  
 6.821214e-06 2.049153e-05 0.000000e+00  
 7.288766e-06 2.014378e-05 0.000000e+00  
 7.044717e-06 2.034022e-05 0.000000e+00  
 7.110571e-06 2.027995e-05 0.000000e+00  
 7.732379e-06 1.946982e-05 0.000000e+00  
 7.821359e-06 1.948258e-05 0.000000e+00  
 8.051362e-06 1.913648e-05 0.000000e+00  
 8.056893e-06 1.904343e-05 0.000000e+00  
 8.162661e-06 1.872412e-05 0.000000e+00  
 8.297206e-06 1.846611e-05 0.000000e+00  
 8.574969e-06 1.843487e-05 0.000000e+00  
 8.567940e-06 1.852618e-05 0.000000e+00  
 8.796403e-06 1.802089e-05 0.000000e+00  
 8.807365e-06 1.781231e-05 0.000000e+00  
 8.968832e-06 1.773062e-05 0.000000e+00  
 8.976882e-06 1.751801e-05 0.000000e+00  
 8.779670e-06 1.760937e-05 0.000000e+00  
 8.928196e-06 1.734482e-05 0.000000e+00  
 8.492484e-06 1.754300e-05 0.000000e+00  
 9.339017e-06 1.676888e-05 0.000000e+00  
 5.466996e-06 2.116936e-05 0.000000e+00  
 4.981492e-06 2.137205e-05 0.000000e+00  
 5.072248e-06 2.127130e-05 0.000000e+00  
 4.373017e-06 2.152827e-05 0.000000e+00  
 4.393171e-06 2.146087e-05 0.000000e+00  
 4.919255e-06 2.114975e-05 0.000000e+00  
 4.670106e-06 2.112244e-05 0.000000e+00  
 4.930385e-06 2.081147e-05 0.000000e+00  
 5.115302e-06 2.085483e-05 0.000000e+00  
 5.478086e-06 2.049976e-05 0.000000e+00  
 5.296037e-06 2.041339e-05 0.000000e+00  
 6.090926e-06 2.002923e-05 0.000000e+00  
 5.729025e-06 1.986722e-05 0.000000e+00  
 5.113887e-06 1.999484e-05 0.000000e+00  
 4.414894e-06 1.983855e-05 0.000000e+00  
 4.725312e-06 1.936528e-05 0.000000e+00  
 5.729759e-06 2.112754e-05 0.000000e+00  
 5.950804e-06 2.102985e-05 0.000000e+00  
 5.898034e-06 2.090894e-05 0.000000e+00  
 6.220644e-06 2.075907e-05 0.000000e+00  
 8.294474e-06 1.906300e-05 0.000000e+00  
 7.991485e-06 1.943130e-05 0.000000e+00  
 8.363876e-06 1.906268e-05 0.000000e+00  
 8.020215e-06 1.944770e-05 0.000000e+00  
 7.730472e-06 1.972386e-05 0.000000e+00  
 7.657910e-06 1.981113e-05 0.000000e+00  
 6.595335e-06 2.061091e-05 0.000000e+00  
 6.406583e-06 2.071366e-05 0.000000e+00  
 7.727978e-06 1.975720e-05 0.000000e+00  
 8.015843e-06 1.949315e-05 0.000000e+00  
 7.073057e-06 2.024874e-05 0.000000e+00  
 7.220125e-06 2.015246e-05 0.000000e+00  
 7.804624e-06 1.968444e-05 0.000000e+00  
 7.708985e-06 1.975486e-05 0.000000e+00  
 8.042330e-06 1.948065e-05 0.000000e+00  
 8.145131e-06 1.939050e-05 0.000000e+00  
 8.636826e-06 1.864045e-05 0.000000e+00  
 8.681255e-06 1.866934e-05 0.000000e+00  
 9.056717e-06 1.814650e-05 0.000000e+00  
 9.087438e-06 1.817209e-05 0.000000e+00  
 9.169307e-06 1.785156e-05 0.000000e+00  
 9.177131e-06 1.777093e-05 0.000000e+00  
 9.641612e-06 1.753987e-05 0.000000e+00  
 9.622307e-06 1.752311e-05 0.000000e+00  
 9.845222e-06 1.712690e-05 0.000000e+00  
 9.616438e-06 1.720639e-05 0.000000e+00  
 9.715681e-06 1.693589e-05 0.000000e+00  
 9.934390e-06 1.684841e-05 0.000000e+00  
 9.952774e-06 1.664217e-05 0.000000e+00  
 9.668635e-06 1.676712e-05 0.000000e+00  
 9.863092e-06 1.651323e-05 0.000000e+00  
 1.044420e-05 1.605820e-05 0.000000e+00  
 1.069022e-05 1.577063e-05 0.000000e+00  
 1.019576e-05 1.602341e-05 0.000000e+00  
 5.440927e-06 2.091796e-05 0.000000e+00  
 5.748222e-06 2.087313e-05 0.000000e+00  
 6.378448e-06 2.057482e-05 0.000000e+00  
 5.816910e-06 2.081475e-05 0.000000e+00  
 5.951454e-06 2.052883e-05 0.000000e+00  
 6.114633e-06 2.052445e-05 0.000000e+00  
 6.655910e-06 2.015055e-05 0.000000e+00  
 6.560791e-06 2.012228e-05 0.000000e+00  
 7.124977e-06 1.983604e-05 0.000000e+00  
 6.876243e-06 1.979977e-05 0.000000e+00  
 7.979914e-06 1.932987e-05 0.000000e+00  
 8.012179e-06 1.928623e-05 0.000000e+00  
 6.874489e-06 1.940172e-05 0.000000e+00  
 7.246367e-06 1.903598e-05 0.000000e+00  
 6.526551e-06 2.047957e-05 0.000000e+00  
 6.706215e-06 2.043390e-05 0.000000e+00  
 6.878389e-06 2.034618e-05 0.000000e+00  
 7.181418e-06 2.008989e-05 0.000000e+00  
 7.210945e-06 2.005960e-05 0.000000e+00  
 8.242558e-06 1.928536e-05 0.000000e+00  
 9.187196e-06 1.822571e-05 0.000000e+00  
 8.857978e-06 1.861778e-05 0.000000e+00  
 9.239410e-06 1.823342e-05 0.000000e+00  
 8.537914e-06 1.897820e-05 0.000000e+00  
 8.939298e-06 1.858011e-05 0.000000e+00  
 8.640100e-06 1.890239e-05 0.000000e+00  
 7.420590e-06 1.994853e-05 0.000000e+00  
 7.532124e-06 1.987664e-05 0.000000e+00  
 8.683811e-06 1.890842e-05 0.000000e+00  
 8.764793e-06 1.882519e-05 0.000000e+00  
 8.071221e-06 1.944989e-05 0.000000e+00  
 8.148710e-06 1.938761e-05 0.000000e+00  
 8.695677e-06 1.891797e-05 0.000000e+00  
 8.614340e-06 1.899597e-05 0.000000e+00  
 9.142957e-06 1.850993e-05 0.000000e+00  
 9.080499e-06 1.857839e-05 0.000000e+00  
 9.594738e-06 1.775076e-05 0.000000e+00  
 9.618973e-06 1.778952e-05 0.000000e+00  
 1.011103e-05 1.723287e-05 0.000000e+00  
 1.010106e-05 1.718544e-05 0.000000e+00  
 1.006791e-05 1.695446e-05 0.000000e+00  
 1.023129e-05 1.689877e-05 0.000000e+00  
 1.063620e-05 1.657628e-05 0.000000e+00  
 1.072212e-05 1.657693e-05 0.000000e+00  
 1.047998e-05 1.641818e-05 0.000000e+00  
 1.070998e-05 1.632816e-05 0.000000e+00  
 1.065434e-05 1.608956e-05 0.000000e+00  
 1.090421e-05 1.598361e-05 0.000000e+00  
 1.092799e-05 1.578639e-05 0.000000e+00  
 1.131027e-05 1.547862e-05 0.000000e+00  
 1.134692e-05 1.527859e-05 0.000000e+00  
 1.162728e-05 1.512415e-05 0.000000e+00  
 1.157200e-05 1.503172e-05 0.000000e+00  
 1.108877e-05 1.528676e-05 0.000000e+00  
 6.787156e-06 2.025067e-05 0.000000e+00  
 6.724548e-06 2.023527e-05 0.000000e+00  
 7.142684e-06 2.005473e-05 0.000000e+00  
 7.217871e-06 2.002266e-05 0.000000e+00  
 7.478913e-06 1.979644e-05 0.000000e+00  
 7.392526e-06 1.987163e-05 0.000000e+00  
 8.134086e-06 1.947662e-05 0.000000e+00  
 8.234045e-06 1.939832e-05 0.000000e+00  
 8.453486e-06 1.931589e-05 0.000000e+00  
 8.890619e-06 1.908605e-05 0.000000e+00  
 9.842986e-06 1.874480e-05 0.000000e+00  
 1.030360e-05 1.858642e-05 0.000000e+00  
 1.009793e-05 1.851156e-05 0.000000e+00  
 7.900340e-06 1.958748e-05 0.000000e+00  
 7.885998e-06 1.960074e-05 0.000000e+00  
 7.904185e-06 1.957837e-05 0.000000e+00  
 7.892339e-06 1.958590e-05 0.000000e+00  
 8.477868e-06 1.917889e-05 0.000000e+00  
 8.497292e-06 1.915050e-05 0.000000e+00  
 1.012435e-05 1.735222e-05 0.000000e+00  
 9.276667e-06 1.835166e-05 0.000000e+00  
 9.277442e-06 1.832661e-05 0.000000e+00  
 9.831170e-06 1.770316e-05 0.000000e+00  
 1.014275e-05 1.739141e-05 0.000000e+00  
 9.846635e-06 1.773601e-05 0.000000e+00  
 9.575508e-06 1.800483e-05 0.000000e+00  
 9.585391e-06 1.802937e-05 0.000000e+00  
 8.535357e-06 1.908883e-05 0.000000e+00  
 8.568000e-06 1.905308e-05 0.000000e+00  
 9.723066e-06 1.795841e-05 0.000000e+00  
 9.715395e-06 1.798891e-05 0.000000e+00  
 9.110367e-06 1.860437e-05 0.000000e+00  
 9.153172e-06 1.854953e-05 0.000000e+00  
 9.624426e-06 1.814049e-05 0.000000e+00  