# vtk DataFile Version 1.0 
PolyMesh 
ASCII 
 
DATASET POLYDATA 
 
POINTS 9 float 
-5.000000e-01 -5.000000e-01 0.000000e+00  
 0.000000e+00 -5.000000e-01 0.000000e+00  
 5.000000e-01 -5.000000e-01 0.000000e+00  
 -5.000000e-01 0.000000e+00 0.000000e+00  
 0.000000e+00 0.000000e+00 0.000000e+00  
 5.000000e-01 0.000000e+00 0.000000e+00  
 -5.000000e-01 5.000000e-01 0.000000e+00  
 0.000000e+00 5.000000e-01 0.000000e+00  
 5.000000e-01 5.000000e-01 0.000000e+00  
  
 POLYGONS 4 20 
 4 0  1  4  3   
 4 1  2  5  4   
 4 3  4  7  6   
 4 4  5  8  7   
  
 POINT_DATA 9 
 VECTORS Displacement float 
 5.000000e-01 5.000000e-01 0.000000e+00  
 5.000000e-01 5.000000e-01 0.000000e+00  
 5.000000e-01 5.000000e-01 0.000000e+00  
 5.000000e-01 5.000000e-01 0.000000e+00  
 5.000000e-01 5.000000e-01 0.000000e+00  
 5.000000e-01 5.000000e-01 0.000000e+00  
 5.000000e-01 5.000000e-01 0.000000e+00  
 5.000000e-01 5.000000e-01 0.000000e+00  
 5.000000e-01 5.000000e-01 0.000000e+00  
  
 