# vtk DataFile Version 1.0 
PolyMesh 
ASCII 
 
DATASET POLYDATA 
 
POINTS 42 float 
5.708000e-11 6.060220e-11 0.000000e+00  
 2.176210e-01 6.060210e-11 0.000000e+00  
 2.231922e-01 2.179218e-01 0.000000e+00  
 6.898720e-11 2.402373e-01 0.000000e+00  
 6.898720e-11 4.488394e-01 0.000000e+00  
 4.564587e-01 5.280900e-11 0.000000e+00  
 7.220149e-01 5.280900e-11 0.000000e+00  
 1.000000e+00 4.986620e-11 0.000000e+00  
 2.672495e-01 2.561842e-01 0.000000e+00  
 4.623223e-01 1.649210e-01 0.000000e+00  
 2.808145e-01 3.517475e-01 0.000000e+00  
 1.807112e-01 4.768122e-01 0.000000e+00  
 2.257319e-01 5.860758e-01 0.000000e+00  
 1.139712e-01 7.340784e-01 0.000000e+00  
 4.865960e-11 7.402984e-01 0.000000e+00  
 5.692910e-11 1.000000e+00 0.000000e+00  
 5.517642e-01 2.392638e-01 0.000000e+00  
 7.251548e-01 1.529632e-01 0.000000e+00  
 7.942600e-01 2.138701e-01 0.000000e+00  
 1.000000e+00 1.670726e-01 0.000000e+00  
 5.000000e-01 5.000000e-01 0.000000e+00  
 5.542221e-01 3.490855e-01 0.000000e+00  
 4.558872e-01 5.515889e-01 0.000000e+00  
 3.598534e-01 6.263911e-01 0.000000e+00  
 3.747049e-01 7.741111e-01 0.000000e+00  
 2.408531e-01 8.502725e-01 0.000000e+00  
 2.257511e-01 1.000000e+00 0.000000e+00  
 7.225783e-01 4.365854e-01 0.000000e+00  
 7.953252e-01 3.716872e-01 0.000000e+00  
 1.000000e+00 4.188235e-01 0.000000e+00  
 5.886213e-01 6.199662e-01 0.000000e+00  
 7.212084e-01 5.401742e-01 0.000000e+00  
 5.932627e-01 7.638503e-01 0.000000e+00  
 4.890333e-01 8.350742e-01 0.000000e+00  
 4.940856e-01 1.000000e+00 0.000000e+00  
 8.097091e-01 6.107010e-01 0.000000e+00  
 1.000000e+00 5.636624e-01 0.000000e+00  
 7.442981e-01 8.261853e-01 0.000000e+00  
 8.035996e-01 7.800488e-01 0.000000e+00  
 7.423915e-01 1.000000e+00 0.000000e+00  
 1.000000e+00 8.178493e-01 0.000000e+00  
 1.000000e+00 1.000000e+00 0.000000e+00  
  
 POLYGONS 20 125 
 6 30  31  35  38  37  32   
 5 5  6  17  16  9   
 5 14  13  25  26  15   
 5 37  38  40  41  39   
 6 23  22  30  32  33  24   
 5 4  11  12  13  14   
 5 25  24  33  34  26   
 6 8  9  16  21  20  10   
 4 35  36  40  38   
 6 16  17  18  28  27  21   
 6 3  2  8  10  11  4   
 5 6  7  19  18  17   
 6 27  28  29  36  35  31   
 4 0  1  2  3   
 5 1  5  9  8  2   
 5 12  23  24  25  13   
 6 11  10  20  22  23  12   
 6 20  21  27  31  30  22   
 5 33  32  37  39  34   
 4 18  19  29  28   
  
 POINT_DATA 42 
 VECTORS Displacement float 
 5.957057e-11 -2.261168e-11 0.000000e+00  
 6.373970e-02 -1.538813e-01 0.000000e+00  
 2.194655e-01 -9.399292e-02 0.000000e+00  
 1.698734e-01 7.036388e-02 0.000000e+00  
 3.173774e-01 1.314620e-01 0.000000e+00  
 1.336937e-01 -3.227651e-01 0.000000e+00  
 2.114733e-01 -5.105417e-01 0.000000e+00  
 2.928932e-01 -7.071068e-01 0.000000e+00  
 2.594252e-01 -1.139393e-01 0.000000e+00  
 2.520278e-01 -2.786070e-01 0.000000e+00  
 3.309717e-01 -9.554142e-02 0.000000e+00  
 3.900862e-01 1.187297e-02 0.000000e+00  
 4.805336e-01 1.204106e-02 0.000000e+00  
 5.524532e-01 1.344168e-01 0.000000e+00  
 5.234700e-01 2.168284e-01 0.000000e+00  
 7.071068e-01 2.928932e-01 0.000000e+00  
 3.307930e-01 -3.200774e-01 0.000000e+00  
 3.205542e-01 -4.679600e-01 0.000000e+00  
 3.838624e-01 -4.989855e-01 0.000000e+00  
 4.110314e-01 -6.581723e-01 0.000000e+00  
 5.000000e-01 -2.071068e-01 0.000000e+00  
 4.091686e-01 -2.896494e-01 0.000000e+00  
 5.235585e-01 -1.608043e-01 0.000000e+00  
 5.483240e-01 -7.098909e-02 0.000000e+00  
 6.571278e-01 -3.822447e-02 0.000000e+00  
 6.717777e-01 7.873019e-02 0.000000e+00  
 7.732278e-01 1.332631e-01 0.000000e+00  
 5.203508e-01 -3.830671e-01 0.000000e+00  
 4.957679e-01 -4.535152e-01 0.000000e+00  
 5.890461e-01 -5.844362e-01 0.000000e+00  
 6.107855e-01 -2.346342e-01 0.000000e+00  
 5.931979e-01 -3.517580e-01 0.000000e+00  
 7.138864e-01 -1.957735e-01 0.000000e+00  
 7.337212e-01 -1.012112e-01 0.000000e+00  
 8.518211e-01 -5.647806e-02 0.000000e+00  
 6.689892e-01 -3.936806e-01 0.000000e+00  
 6.914627e-01 -5.420139e-01 0.000000e+00  
 8.022011e-01 -2.843142e-01 0.000000e+00  
 7.869466e-01 -3.397597e-01 0.000000e+00  
 9.245482e-01 -2.320569e-01 0.000000e+00  
 8.712000e-01 -4.675643e-01 0.000000e+00  
 1.000000e+00 -4.142136e-01 0.000000e+00  
  
 