# vtk DataFile Version 1.0 
PolyMesh 
ASCII 
 
DATASET POLYDATA 
 
POINTS 9 float 
-5.000000e-01 -5.000000e-01 0.000000e+00  
 0.000000e+00 -5.000000e-01 0.000000e+00  
 5.000000e-01 -5.000000e-01 0.000000e+00  
 -5.000000e-01 0.000000e+00 0.000000e+00  
 0.000000e+00 0.000000e+00 0.000000e+00  
 5.000000e-01 0.000000e+00 0.000000e+00  
 -5.000000e-01 5.000000e-01 0.000000e+00  
 0.000000e+00 5.000000e-01 0.000000e+00  
 5.000000e-01 5.000000e-01 0.000000e+00  
  
 POLYGONS 4 20 
 4 0  1  4  3   
 4 1  2  5  4   
 4 3  4  7  6   
 4 4  5  8  7   
  
 POINT_DATA 9 
 VECTORS Displacement float 
 5.000000e-01 -2.071068e-01 0.000000e+00  
 3.535534e-01 1.464466e-01 0.000000e+00  
 2.071068e-01 5.000000e-01 0.000000e+00  
 1.464466e-01 -3.535534e-01 0.000000e+00  
 -4.174894e-18 1.669958e-17 0.000000e+00  
 -1.464466e-01 3.535534e-01 0.000000e+00  
 -2.071068e-01 -5.000000e-01 0.000000e+00  
 -3.535534e-01 -1.464466e-01 0.000000e+00  
 -5.000000e-01 2.071068e-01 0.000000e+00  
  
 