# vtk DataFile Version 1.0 
PolyMesh 
ASCII 
 
DATASET POLYDATA 
 
POINTS 494 float 
0.000000e+00 0.000000e+00 0.000000e+00  
 -6.590000e-14 4.228343e-02 0.000000e+00  
 -8.820000e-14 1.291920e-01 0.000000e+00  
 -8.930000e-14 2.160976e-01 0.000000e+00  
 -8.930000e-14 3.029793e-01 0.000000e+00  
 -8.890000e-14 3.898459e-01 0.000000e+00  
 -8.840000e-14 4.767425e-01 0.000000e+00  
 -8.800000e-14 5.637325e-01 0.000000e+00  
 -8.740000e-14 6.508880e-01 0.000000e+00  
 -8.650000e-14 7.382740e-01 0.000000e+00  
 -8.410000e-14 8.259148e-01 0.000000e+00  
 -4.940000e-14 9.138460e-01 0.000000e+00  
 0.000000e+00 1.000000e+00 0.000000e+00  
 7.649000e-13 9.570957e-01 0.000000e+00  
 9.705000e-13 8.573904e-02 0.000000e+00  
 9.707000e-13 1.726222e-01 0.000000e+00  
 9.706000e-13 2.595001e-01 0.000000e+00  
 9.703000e-13 3.463777e-01 0.000000e+00  
 9.701000e-13 4.332664e-01 0.000000e+00  
 9.705000e-13 5.202190e-01 0.000000e+00  
 9.715000e-13 6.073081e-01 0.000000e+00  
 9.730000e-13 6.946035e-01 0.000000e+00  
 9.743000e-13 7.821362e-01 0.000000e+00  
 9.763000e-13 8.700261e-01 0.000000e+00  
 4.002482e-02 8.693975e-01 0.000000e+00  
 4.007341e-02 7.818715e-01 0.000000e+00  
 4.010287e-02 6.944057e-01 0.000000e+00  
 4.013519e-02 6.072201e-01 0.000000e+00  
 4.015157e-02 1.727118e-01 0.000000e+00  
 4.015304e-02 2.596440e-01 0.000000e+00  
 4.015673e-02 5.202199e-01 0.000000e+00  
 4.015771e-02 8.573613e-02 0.000000e+00  
 4.016151e-02 3.464928e-01 0.000000e+00  
 4.016471e-02 4.333307e-01 0.000000e+00  
 4.193383e-02 1.000000e+00 0.000000e+00  
 4.354191e-02 7.291000e-13 0.000000e+00  
 4.513142e-02 9.540052e-01 0.000000e+00  
 5.580078e-02 2.162395e-01 0.000000e+00  
 5.582220e-02 7.380009e-01 0.000000e+00  
 5.584042e-02 3.031033e-01 0.000000e+00  
 5.585667e-02 6.507376e-01 0.000000e+00  
 5.586851e-02 1.293060e-01 0.000000e+00  
 5.587227e-02 3.899243e-01 0.000000e+00  
 5.588315e-02 5.636843e-01 0.000000e+00  
 5.588686e-02 4.767662e-01 0.000000e+00  
 5.603208e-02 8.254497e-01 0.000000e+00  
 5.678976e-02 4.282726e-02 0.000000e+00  
 5.794012e-02 9.117600e-01 0.000000e+00  
 8.420123e-02 1.000000e+00 0.000000e+00  
 8.782150e-02 6.942295e-01 0.000000e+00  
 8.782840e-02 7.814310e-01 0.000000e+00  
 8.783817e-02 1.729119e-01 0.000000e+00  
 8.785378e-02 2.597364e-01 0.000000e+00  
 8.788323e-02 6.071431e-01 0.000000e+00  
 8.789681e-02 3.465417e-01 0.000000e+00  
 8.791538e-02 5.201979e-01 0.000000e+00  
 8.791861e-02 4.333458e-01 0.000000e+00  
 8.820950e-02 8.632801e-02 0.000000e+00  
 8.866253e-02 8.681529e-01 0.000000e+00  
 9.163029e-02 7.754000e-13 0.000000e+00  
 9.423168e-02 9.542738e-01 0.000000e+00  
 1.098971e-01 2.164008e-01 0.000000e+00  
 1.099440e-01 3.031741e-01 0.000000e+00  
 1.099508e-01 7.376841e-01 0.000000e+00  
 1.099658e-01 6.506118e-01 0.000000e+00  
 1.099942e-01 3.899526e-01 0.000000e+00  
 1.100075e-01 5.636369e-01 0.000000e+00  
 1.100157e-01 4.767614e-01 0.000000e+00  
 1.101016e-01 1.297397e-01 0.000000e+00  
 1.104656e-01 8.245931e-01 0.000000e+00  
 1.113035e-01 4.339491e-02 0.000000e+00  
 1.128783e-01 9.110230e-01 0.000000e+00  
 1.290882e-01 1.000000e+00 0.000000e+00  
 1.383362e-01 2.598477e-01 0.000000e+00  
 1.383528e-01 6.940326e-01 0.000000e+00  
 1.383873e-01 1.731983e-01 0.000000e+00  
 1.383906e-01 3.465842e-01 0.000000e+00  
 1.383975e-01 6.070723e-01 0.000000e+00  
 1.384256e-01 4.333553e-01 0.000000e+00  
 1.384286e-01 5.201777e-01 0.000000e+00  
 1.385360e-01 7.809184e-01 0.000000e+00  
 1.389711e-01 8.674274e-02 0.000000e+00  
 1.397568e-01 8.675727e-01 0.000000e+00  
 1.415433e-01 8.004000e-13 0.000000e+00  
 1.445846e-01 9.545012e-01 0.000000e+00  
 1.628406e-01 2.165921e-01 0.000000e+00  
 1.628511e-01 3.032475e-01 0.000000e+00  
 1.628977e-01 6.504929e-01 0.000000e+00  
 1.629021e-01 3.899772e-01 0.000000e+00  
 1.629229e-01 5.635979e-01 0.000000e+00  
 1.629276e-01 4.767578e-01 0.000000e+00  
 1.629728e-01 7.373647e-01 0.000000e+00  
 1.631304e-01 1.300711e-01 0.000000e+00  
 1.636241e-01 8.241096e-01 0.000000e+00  
 1.642357e-01 4.356261e-02 0.000000e+00  
 1.659463e-01 9.108849e-01 0.000000e+00  
 1.760143e-01 1.000000e+00 0.000000e+00  
 1.897857e-01 2.599649e-01 0.000000e+00  
 1.898193e-01 3.466286e-01 0.000000e+00  
 1.898531e-01 6.070093e-01 0.000000e+00  
 1.898557e-01 4.333662e-01 0.000000e+00  
 1.898658e-01 5.201623e-01 0.000000e+00  
 1.898724e-01 6.938578e-01 0.000000e+00  
 1.898968e-01 1.734107e-01 0.000000e+00  
 1.901700e-01 7.806312e-01 0.000000e+00  
 1.904786e-01 8.691332e-02 0.000000e+00  
 1.914019e-01 8.673989e-01 0.000000e+00  
 1.922552e-01 8.160000e-13 0.000000e+00  
 1.952120e-01 9.548619e-01 0.000000e+00  
 2.151934e-01 3.033188e-01 0.000000e+00  
 2.152213e-01 2.167304e-01 0.000000e+00  
 2.152286e-01 3.900027e-01 0.000000e+00  
 2.152543e-01 4.767578e-01 0.000000e+00  
 2.152614e-01 5.635676e-01 0.000000e+00  
 2.152767e-01 6.503995e-01 0.000000e+00  
 2.154233e-01 7.371959e-01 0.000000e+00  
 2.155141e-01 1.302179e-01 0.000000e+00  
 2.160740e-01 8.239692e-01 0.000000e+00  
 2.163960e-01 4.357741e-02 0.000000e+00  
 2.180195e-01 9.110526e-01 0.000000e+00  
 2.243600e-01 1.000000e+00 0.000000e+00  
 2.415384e-01 2.600479e-01 0.000000e+00  
 2.415449e-01 3.466705e-01 0.000000e+00  
 2.415727e-01 4.333791e-01 0.000000e+00  
 2.415898e-01 5.201529e-01 0.000000e+00  
 2.416053e-01 6.069655e-01 0.000000e+00  
 2.416669e-01 1.735089e-01 0.000000e+00  
 2.416799e-01 6.937747e-01 0.000000e+00  
 2.420088e-01 7.805639e-01 0.000000e+00  
 2.421510e-01 8.694527e-02 0.000000e+00  
 2.430600e-01 8.674999e-01 0.000000e+00  
 2.433379e-01 8.261000e-13 0.000000e+00  
 2.459058e-01 9.551928e-01 0.000000e+00  
 2.672522e-01 3.033688e-01 0.000000e+00  
 2.672687e-01 3.900269e-01 0.000000e+00  
 2.672912e-01 4.767616e-01 0.000000e+00  
 2.672990e-01 2.167940e-01 0.000000e+00  
 2.673126e-01 5.635506e-01 0.000000e+00  
 2.673624e-01 6.503627e-01 0.000000e+00  
 2.675387e-01 7.371730e-01 0.000000e+00  
 2.675476e-01 1.302485e-01 0.000000e+00  
 2.680995e-01 8.240505e-01 0.000000e+00  
 2.681976e-01 4.354331e-02 0.000000e+00  
 2.696036e-01 9.113142e-01 0.000000e+00  
 2.736274e-01 1.000000e+00 0.000000e+00  
 2.933264e-01 3.467002e-01 0.000000e+00  
 2.933370e-01 2.600865e-01 0.000000e+00  
 2.933437e-01 4.333925e-01 0.000000e+00  
 2.933654e-01 5.201514e-01 0.000000e+00  
 2.934020e-01 6.069542e-01 0.000000e+00  
 2.934531e-01 1.735283e-01 0.000000e+00  
 2.935029e-01 6.937781e-01 0.000000e+00  
 2.938011e-01 7.806420e-01 0.000000e+00  
 2.938170e-01 8.691679e-02 0.000000e+00  
 2.945933e-01 8.330000e-13 0.000000e+00  
 2.946165e-01 8.677100e-01 0.000000e+00  
 2.966438e-01 9.554621e-01 0.000000e+00  
 3.191373e-01 3.033927e-01 0.000000e+00  
 3.191411e-01 3.900449e-01 0.000000e+00  
 3.191595e-01 4.767689e-01 0.000000e+00  
 3.191853e-01 2.168059e-01 0.000000e+00  
 3.191892e-01 5.635518e-01 0.000000e+00  
 3.192542e-01 6.503761e-01 0.000000e+00  
 3.193739e-01 1.302254e-01 0.000000e+00  
 3.194208e-01 7.372409e-01 0.000000e+00  
 3.198246e-01 4.349976e-02 0.000000e+00  
 3.198575e-01 8.242206e-01 0.000000e+00  
 3.209456e-01 9.115737e-01 0.000000e+00  
 3.234819e-01 1.000000e+00 0.000000e+00  
 3.450730e-01 3.467155e-01 0.000000e+00  
 3.450827e-01 4.334039e-01 0.000000e+00  
 3.450893e-01 2.600941e-01 0.000000e+00  
 3.451047e-01 5.201588e-01 0.000000e+00  
 3.451479e-01 6.069701e-01 0.000000e+00  
 3.451791e-01 1.735101e-01 0.000000e+00  
 3.452458e-01 6.938324e-01 0.000000e+00  
 3.454312e-01 8.687144e-02 0.000000e+00  
 3.454818e-01 7.807748e-01 0.000000e+00  
 3.459232e-01 8.380000e-13 0.000000e+00  
 3.460649e-01 8.679305e-01 0.000000e+00  
 3.474301e-01 9.556650e-01 0.000000e+00  
 3.708980e-01 3.900554e-01 0.000000e+00  
 3.708998e-01 3.033985e-01 0.000000e+00  
 3.709119e-01 4.767785e-01 0.000000e+00  
 3.709385e-01 2.167936e-01 0.000000e+00  
 3.709410e-01 5.635665e-01 0.000000e+00  
 3.710011e-01 6.504160e-01 0.000000e+00  
 3.710671e-01 1.301874e-01 0.000000e+00  
 3.711328e-01 7.373376e-01 0.000000e+00  
 3.713574e-01 4.346219e-02 0.000000e+00  
 3.714395e-01 8.243942e-01 0.000000e+00  
 3.721648e-01 9.117859e-01 0.000000e+00  
 3.737037e-01 1.000000e+00 0.000000e+00  
 3.967601e-01 3.467206e-01 0.000000e+00  
 3.967652e-01 4.334124e-01 0.000000e+00  
 3.967741e-01 2.600874e-01 0.000000e+00  
 3.967829e-01 5.201709e-01 0.000000e+00  
 3.968192e-01 6.069977e-01 0.000000e+00  
 3.968338e-01 1.734827e-01 0.000000e+00  
 3.968937e-01 6.938979e-01 0.000000e+00  
 3.969902e-01 8.683084e-02 0.000000e+00  
 3.970545e-01 7.809003e-01 0.000000e+00  
 3.972793e-01 8.415000e-13 0.000000e+00  
 3.974263e-01 8.681088e-01 0.000000e+00  
 3.982604e-01 9.558046e-01 0.000000e+00  
 4.225728e-01 3.900604e-01 0.000000e+00  
 4.225753e-01 3.033963e-01 0.000000e+00  
 4.225816e-01 4.767874e-01 0.000000e+00  
 4.225997e-01 2.167767e-01 0.000000e+00  
 4.226021e-01 5.635844e-01 0.000000e+00  
 4.226433e-01 6.504571e-01 0.000000e+00  
 4.226737e-01 1.301550e-01 0.000000e+00  
 4.227265e-01 7.374203e-01 0.000000e+00  
 4.228349e-01 4.343613e-02 0.000000e+00  
 4.229073e-01 8.245256e-01 0.000000e+00  
 4.233199e-01 9.119317e-01 0.000000e+00  
 4.241453e-01 1.000000e+00 0.000000e+00  
 4.483948e-01 3.467212e-01 0.000000e+00  
 4.483971e-01 4.334177e-01 0.000000e+00  
 4.484026e-01 2.600790e-01 0.000000e+00  
 4.484068e-01 5.201816e-01 0.000000e+00  
 4.484271e-01 6.070211e-01 0.000000e+00  
 4.484321e-01 1.734616e-01 0.000000e+00  
 4.484669e-01 6.939467e-01 0.000000e+00  
 4.485066e-01 8.680437e-02 0.000000e+00  
 4.485479e-01 7.809851e-01 0.000000e+00  
 4.486402e-01 8.435000e-13 0.000000e+00  
 4.487282e-01 8.682213e-01 0.000000e+00  
 4.491223e-01 9.558857e-01 0.000000e+00  
 4.741967e-01 3.900623e-01 0.000000e+00  
 4.741978e-01 3.033934e-01 0.000000e+00  
 4.741997e-01 4.767927e-01 0.000000e+00  
 4.742060e-01 2.167660e-01 0.000000e+00  
 4.742071e-01 5.635959e-01 0.000000e+00  
 4.742216e-01 6.504817e-01 0.000000e+00  
[...]
 POINT_DATA 494 
 SCALARS Field float 1
 LOOKUP_TABLE default
0.000000e+00  
 0.000000e+00  
 0.000000e+00  
 0.000000e+00  
 0.000000e+00  
 0.000000e+00  
 0.000000e+00  
 0.000000e+00  
 0.000000e+00  
 0.000000e+00  
 0.000000e+00  
 0.000000e+00  
 0.000000e+00  
 0.000000e+00  
 0.000000e+00  
 0.000000e+00  
 0.000000e+00  
 0.000000e+00  
 0.000000e+00  
 0.000000e+00  
 0.000000e+00  
 0.000000e+00  
 0.000000e+00  
 0.000000e+00  
 2.519532e-03  
 4.005551e-03  
 5.189449e-03  
 5.983832e-03  
 3.274760e-03  
 4.618839e-03  
 6.330891e-03  
 1.686473e-03  
 5.620787e-03  
 6.206296e-03  
 0.000000e+00  
 0.000000e+00  
 1.042188e-03  
 5.529746e-03  
 6.455734e-03  
 7.176013e-03  
 7.840714e-03  
 3.481024e-03  
 8.291377e-03  
 8.638824e-03  
 8.791880e-03  
 4.605783e-03  
 1.198136e-03  
 2.502599e-03  
 0.000000e+00  
 1.126543e-02  
 8.714365e-03  
 7.106397e-03  
 1.001665e-02  
 1.298409e-02  
 1.219024e-02  
 1.373350e-02  
 1.346116e-02  
 3.697550e-03  
 5.583818e-03  
 0.000000e+00  
 2.103585e-03  
 1.073981e-02  
 1.392622e-02  
 1.254325e-02  
 1.521548e-02  
 1.608670e-02  
 1.675954e-02  
 1.705601e-02  
 6.783510e-03  
 8.988365e-03  
 2.348109e-03  
 4.831412e-03  
 0.000000e+00  
 1.548653e-02  
 1.742729e-02  
 1.100603e-02  
 1.883994e-02  
 2.007096e-02  
 2.080266e-02  
 2.122467e-02  
 1.351777e-02  
 5.744573e-03  
 8.669906e-03  
 0.000000e+00  
 3.147176e-03  
 1.554935e-02  
 2.014360e-02  
 2.201064e-02  
 2.326178e-02  
 2.423469e-02  
 2.466159e-02  
 1.816868e-02  
 9.836417e-03  
 1.302779e-02  
 3.396868e-03  
 6.941778e-03  
 0.000000e+00  
 2.066388e-02  
 2.512597e-02  
 2.677057e-02  
 2.773978e-02  
 2.830315e-02  
 2.326107e-02  
 1.469925e-02  
 1.805804e-02  
 7.668954e-03  
 1.155363e-02  
 0.000000e+00  
 4.100124e-03  
 2.575083e-02  
 1.988865e-02  
 2.972863e-02  
 3.151534e-02  
 3.097209e-02  
 2.813918e-02  
 2.323894e-02  
 1.258211e-02  
 1.664874e-02  
 4.330984e-03  
 8.804286e-03  
 0.000000e+00  
 2.532844e-02  
 3.078815e-02  
 3.398629e-02  
 3.467662e-02  
 3.280411e-02  
 1.802054e-02  
 2.851200e-02  
 2.212961e-02  
 9.390225e-03  
 1.411418e-02  
 0.000000e+00  
 4.939571e-03  
 3.063895e-02  
 3.536558e-02  
 3.748867e-02  
 2.366772e-02  
 3.684405e-02  
 3.347838e-02  
 2.764638e-02  
 1.496581e-02  
 1.977784e-02  
 5.138478e-03  
 1.040058e-02  
 0.000000e+00  
 3.564352e-02  
 2.932608e-02  
 3.934241e-02  
 4.014101e-02  
 3.797526e-02  
 2.086134e-02  
 3.300567e-02  
 2.560028e-02  
 1.085812e-02  
 0.000000e+00  
 1.628408e-02  
 5.649824e-03  
 3.469607e-02  
 4.004571e-02  
 4.244783e-02  
 2.680056e-02  
 4.171781e-02  
 3.790576e-02  
 1.693778e-02  
 3.129192e-02  
 5.805601e-03  
 2.235547e-02  
 1.171017e-02  
 0.000000e+00  
 3.955461e-02  
 4.365752e-02  
 3.254392e-02  
 4.454262e-02  
 4.213807e-02  
 2.314474e-02  
 3.661713e-02  
 1.203635e-02  
 2.838155e-02  
 0.000000e+00  
 1.801718e-02  
 6.217928e-03  
 4.365748e-02  
 3.782576e-02  
 4.627497e-02  
 2.921498e-02  
 4.547767e-02  
 4.131775e-02  
 1.845577e-02  
 3.409593e-02  
 6.319119e-03  
 2.433309e-02  
 1.271316e-02  
 0.000000e+00  
 4.241920e-02  
 4.681862e-02  
 3.489937e-02  
 4.776657e-02  
 4.518520e-02  
 2.481474e-02  
 3.925730e-02  
 1.289761e-02  
 3.041110e-02  
 0.000000e+00  
 1.927966e-02  
 6.632690e-03  
 4.611415e-02  
 3.995382e-02  
 4.887818e-02  
 3.085572e-02  
 4.803427e-02  
 4.363597e-02  
 1.948675e-02  
 3.599869e-02  
 6.668013e-03  
 2.567321e-02  
 1.339244e-02  
 0.000000e+00  
 4.416605e-02  
 4.874657e-02  
 3.633523e-02  
 4.973259e-02  
 4.704255e-02  
 2.583230e-02  
 4.086529e-02  
 1.342231e-02  
 3.164595e-02  
 0.000000e+00  
 2.004718e-02  
 6.885327e-03  
 4.735718e-02  
 4.103037e-02  
 5.019536e-02  
 3.168548e-02  
 4.932758e-02  
 4.480814e-02  
 2.000803e-02  
 3.696016e-02  
 6.844477e-03  
 2.634993e-02  
 1.373543e-02  
 0.000000e+00  
 4.939441e-02  
 5.039318e-02  
 4.475300e-02  
 4.766648e-02  
 4.140525e-02  
 3.681759e-02  
 3.206043e-02  
 2.030472e-02  
 2.617408e-02  
 6.970190e-03  
 1.359855e-02  
 0.000000e+00  
 0.000000e+00  
 1.373543e-02  
 2.634993e-02  
 6.844477e-03  
 3.696016e-02  
 2.000803e-02  
 4.480814e-02  
 4.932758e-02  
 3.168548e-02  
 5.019536e-02  
 4.103037e-02  
 4.735718e-02  
 6.885327e-03  
 2.004718e-02  
 0.000000e+00  
 3.164595e-02  
 1.342231e-02  
 4.086529e-02  
 2.583230e-02  
 4.704255e-02  
 4.973259e-02  
 3.633523e-02  
 4.874657e-02  
 4.416605e-02  
 0.000000e+00  
 1.339244e-02  
 2.567321e-02  
 6.668013e-03  
 3.599869e-02  
 1.948675e-02  
 4.363597e-02  
 4.803427e-02  
 3.085572e-02  
 4.887818e-02  
 3.995382e-02  
 4.611415e-02  
 6.632690e-03  
 1.927966e-02  
 0.000000e+00  
 3.041110e-02  
 1.289761e-02  
 3.925730e-02  
 2.481474e-02  
 4.518520e-02  
 4.776657e-02  
 3.489937e-02  
 4.681862e-02  
 4.241920e-02  
 0.000000e+00  
 1.271316e-02  
 2.433309e-02  
 6.319119e-03  
 3.409593e-02  
 1.845577e-02  
 4.131775e-02  
 4.547767e-02  
 2.921498e-02  
 4.627497e-02  
 3.782576e-02  
 4.365748e-02  
 6.217928e-03  
 1.801718e-02  
 0.000000e+00  
 2.838155e-02  
 1.203635e-02  
 3.661713e-02  
 2.314474e-02  
 4.213807e-02  
 4.454262e-02  
 3.254392e-02  
 4.365752e-02  
 3.955461e-02  
 0.000000e+00  
 1.171017e-02  
 2.235547e-02  
 5.805601e-03  
 3.129192e-02  
 1.693778e-02  
 3.790576e-02  
 4.171781e-02  
 2.680056e-02  
 4.244783e-02  
 4.004571e-02  
 3.469607e-02  
 5.649824e-03  
 1.628408e-02  
 0.000000e+00  
 1.085812e-02  
 2.560028e-02  
 3.300567e-02  
 2.086134e-02  
 3.797526e-02  
 4.014101e-02  
 3.934241e-02  
 2.932608e-02  
 3.564352e-02  
 0.000000e+00  
 1.040058e-02  
 5.138478e-03  
 1.977784e-02  
 1.496581e-02  
 2.764638e-02  
 3.347838e-02  
 3.684405e-02  
 2.366772e-02  
 3.748867e-02  
 3.536558e-02  
 3.063895e-02  
 4.939570e-03  
 0.000000e+00  
 1.411418e-02  
 9.390225e-03  
 2.212961e-02  
 2.851200e-02  
 1.802054e-02  
 3.280411e-02  
 3.467662e-02  
 3.398629e-02  
 3.078815e-02  
 2.532844e-02  
 0.000000e+00  
 8.804286e-03  
 4.330984e-03  
 1.664874e-02  
 1.258211e-02  
 2.323894e-02  
 2.813918e-02  
 3.097209e-02  
 3.151534e-02  
 2.972863e-02  
 1.988865e-02  
 2.575083e-02  
 4.100124e-03  
 0.000000e+00  
 1.155363e-02  
 7.668954e-03  
 1.805804e-02  
 1.469925e-02  
 2.326107e-02  
 2.830315e-02  
 2.773978e-02  
 2.677057e-02  
 2.512597e-02  
 2.066388e-02  
 0.000000e+00  
 6.941778e-03  
 3.396868e-03  
 1.302779e-02  
 9.836417e-03  
 1.816868e-02  
 2.466159e-02  
 2.423469e-02  
 2.326178e-02  
 2.201064e-02  
 2.014360e-02  
 1.554935e-02  
 3.147176e-03  
 0.000000e+00  
 8.669906e-03  
 5.744573e-03  
 1.351777e-02  
 2.122467e-02  
 2.080266e-02  
 2.007096e-02  
 1.883994e-02  
 1.100603e-02  
 1.742729e-02  
 1.548653e-02  
 0.000000e+00  
 4.831412e-03  
 2.348109e-03  
 8.988365e-03  
 6.783510e-03  
 1.705601e-02  
 1.675954e-02  
 1.608670e-02  
 1.521548e-02  
 1.254325e-02  
 1.392622e-02  
 1.073981e-02  
 2.103585e-03  
 0.000000e+00  
 5.583818e-03  
 3.697550e-03  
 1.346116e-02  
 1.373350e-02  
 1.219024e-02  
 1.298409e-02  
 1.001665e-02  
 7.106397e-03  
 8.714365e-03  
 1.126543e-02  
 0.000000e+00  
 2.502599e-03  
 1.198136e-03  
 4.605783e-03  
 8.791880e-03  
 8.638824e-03  
 8.291377e-03  
 3.481024e-03  
 7.840714e-03  
 7.176013e-03  
 6.455734e-03  
 5.529746e-03  
 1.042188e-03  
 0.000000e+00  
 0.000000e+00  
 6.206296e-03  
 5.620787e-03  
 1.686473e-03  
 6.330891e-03  
 4.618839e-03  
 3.274760e-03  
 5.983832e-03  
 5.189449e-03  
 4.005551e-03  
 2.519532e-03  
 0.000000e+00  
 0.000000e+00  
 0.000000e+00  
 0.000000e+00  
 0.000000e+00  
 0.000000e+00  
 0.000000e+00  
 0.000000e+00  
 0.000000e+00  
 0.000000e+00  
 0.000000e+00  
 0.000000e+00  
 0.000000e+00  
 0.000000e+00  
 0.000000e+00  
 0.000000e+00  
 0.000000e+00  
 0.000000e+00  
 0.000000e+00  
 0.000000e+00  
 0.000000e+00  
 0.000000e+00  
 0.000000e+00  
 0.000000e+00  
  
 