# vtk DataFile Version 1.0 
PolyMesh 
ASCII 
 
DATASET POLYDATA 
 
POINTS 75 float 
0.000000e+00 0.000000e+00 0.000000e+00  
 0.000000e+00 1.000000e+00 0.000000e+00  
 7.403000e-13 1.092530e-01 0.000000e+00  
 7.527000e-13 8.919853e-01 0.000000e+00  
 1.137300e-12 3.333143e-01 0.000000e+00  
 1.152800e-12 6.688570e-01 0.000000e+00  
 1.356200e-12 4.403859e-01 0.000000e+00  
 1.323100e-12 5.619004e-01 0.000000e+00  
 1.677500e-12 2.152466e-01 0.000000e+00  
 1.600400e-12 7.870294e-01 0.000000e+00  
 1.201668e-01 2.484282e-01 0.000000e+00  
 1.207862e-01 4.994506e-01 0.000000e+00  
 1.208079e-01 7.500104e-01 0.000000e+00  
 1.222919e-01 1.669500e-12 0.000000e+00  
 1.228949e-01 1.000000e+00 0.000000e+00  
 1.541353e-01 3.751882e-01 0.000000e+00  
 1.545161e-01 6.237830e-01 0.000000e+00  
 1.552562e-01 8.738383e-01 0.000000e+00  
 1.554889e-01 1.254553e-01 0.000000e+00  
 2.491887e-01 2.523623e-01 0.000000e+00  
 2.497016e-01 7.471929e-01 0.000000e+00  
 2.498709e-01 4.995054e-01 0.000000e+00  
 2.499784e-01 1.501700e-12 0.000000e+00  
 2.503421e-01 1.000000e+00 0.000000e+00  
 3.055895e-01 1.279062e-01 0.000000e+00  
 3.057171e-01 8.719477e-01 0.000000e+00  
 3.078975e-01 3.763894e-01 0.000000e+00  
 3.081902e-01 6.228979e-01 0.000000e+00  
 3.818421e-01 1.515000e-12 0.000000e+00  
 3.823984e-01 1.000000e+00 0.000000e+00  
 3.895182e-01 2.533327e-01 0.000000e+00  
 3.899389e-01 7.462465e-01 0.000000e+00  
 3.913099e-01 4.996328e-01 0.000000e+00  
 4.513700e-01 1.291147e-01 0.000000e+00  
 4.517350e-01 8.706496e-01 0.000000e+00  
 4.577193e-01 3.769412e-01 0.000000e+00  
 4.580114e-01 6.223785e-01 0.000000e+00  
 5.139315e-01 1.492600e-12 0.000000e+00  
 5.146448e-01 1.000000e+00 0.000000e+00  
 5.345996e-01 2.541373e-01 0.000000e+00  
 5.350527e-01 7.452804e-01 0.000000e+00  
 5.378371e-01 4.995554e-01 0.000000e+00  
 5.947397e-01 1.302567e-01 0.000000e+00  
 5.951708e-01 8.693895e-01 0.000000e+00  
 6.054824e-01 3.770764e-01 0.000000e+00  
 6.057710e-01 6.219614e-01 0.000000e+00  
 6.433529e-01 1.441200e-12 0.000000e+00  
 6.441139e-01 1.000000e+00 0.000000e+00  
 6.834027e-01 2.542869e-01 0.000000e+00  
 6.838230e-01 7.448381e-01 0.000000e+00  
 6.877325e-01 4.993625e-01 0.000000e+00  
 7.361838e-01 1.310239e-01 0.000000e+00  
 7.364746e-01 8.684577e-01 0.000000e+00  
 7.506306e-01 3.766014e-01 0.000000e+00  
 7.508702e-01 6.220614e-01 0.000000e+00  
 7.676294e-01 1.371200e-12 0.000000e+00  
 7.683051e-01 1.000000e+00 0.000000e+00  
 8.374175e-01 2.528191e-01 0.000000e+00  
 8.377043e-01 7.460550e-01 0.000000e+00  
 8.416143e-01 4.991332e-01 0.000000e+00  
 8.736041e-01 1.320156e-01 0.000000e+00  
 8.736250e-01 8.674647e-01 0.000000e+00  
 8.845275e-01 1.509400e-12 0.000000e+00  
 8.850678e-01 1.000000e+00 0.000000e+00  
 8.879081e-01 3.741416e-01 0.000000e+00  
 8.880111e-01 6.241141e-01 0.000000e+00  
 1.000000e+00 0.000000e+00 0.000000e+00  
 1.000000e+00 1.000000e+00 0.000000e+00  
 1.000000e+00 2.467699e-01 0.000000e+00  
 1.000000e+00 7.514435e-01 0.000000e+00  
 1.000000e+00 4.987748e-01 0.000000e+00  
 1.000000e+00 8.764370e-01 0.000000e+00  
 1.000000e+00 1.226308e-01 0.000000e+00  
 1.000000e+00 3.721442e-01 0.000000e+00  
 1.000000e+00 6.253097e-01 0.000000e+00  
  
 POLYGONS 115 460 
 3 66  72  62   
 3 18  8  2   
 3 9  17  3   
 3 14  1  3   
 3 3  17  14   
 3 64  73  70   
 3 68  73  64   
 3 69  71  61   
 3 49  54  58   
 3 58  69  61   
 3 45  54  49   
 3 54  45  50   
 3 50  45  41   
 3 19  18  24   
 3 49  58  52   
 3 52  58  61   
 3 49  52  43   
 3 43  52  47   
 3 63  71  67   
 3 61  71  63   
 3 12  17  9   
 3 12  9  5   
 3 5  16  12   
 3 64  70  59   
 3 54  50  59   
 3 36  27  32   
 3 31  27  36   
 3 32  41  36   
 3 41  45  36   
 3 60  62  72   
 3 72  68  60   
 3 60  55  62   
 3 51  55  60   
 3 64  59  53   
 3 53  59  50   
 3 19  24  30   
 3 35  41  32   
 3 35  30  39   
 3 46  55  51   
 3 42  51  48   
 3 48  39  42   
 3 42  46  51   
 3 37  46  42   
 3 14  17  23   
 3 47  52  56   
 3 56  52  61   
 3 61  63  56   
 3 19  15  10   
 3 8  18  10   
 3 10  18  19   
 3 26  15  19   
 3 26  35  32   
 3 19  30  26   
 3 30  35  26   
 3 25  23  17   
 3 31  34  25   
 3 29  23  25   
 3 25  34  29   
 3 20  27  31   
 3 31  25  20   
 3 16  27  20   
 3 20  12  16   
 3 17  12  20   
 3 20  25  17   
 3 65  70  74   
 3 65  59  70   
 3 54  59  65   
 3 65  58  54   
 3 74  69  65   
 3 69  58  65   
 3 40  36  45   
 3 40  45  49   
 3 49  43  40   
 3 31  36  40   
 3 40  34  31   
 3 43  34  40   
 3 57  68  64   
 3 57  60  68   
 3 64  53  57   
 3 57  53  48   
 3 48  51  57   
 3 51  60  57   
 3 22  24  18   
 3 22  28  24   
 3 24  28  33   
 3 33  30  24   
 3 33  28  37   
 3 37  42  33   
 3 39  30  33   
 3 33  42  39   
 3 41  35  44   
 3 44  35  39   
 3 44  50  41   
 3 44  53  50   
 3 44  39  48   
 3 48  53  44   
 3 38  43  47   
 3 38  34  43   
 3 29  34  38   
 3 8  10  4   
 3 4  10  15   
 3 15  6  4   
 3 11  6  15   
 3 13  22  18   
 3 2  0  13   
 3 13  18  2   
 3 6  11  7   
 3 7  16  5   
 3 7  11  16   
 3 21  27  16   
 3 16  11  21   
 3 32  27  21   
 3 21  26  32   
 3 15  26  21   
 3 21  11  15   
  
 POINT_DATA 75 
 SCALARS Field float 1
 LOOKUP_TABLE default
0.000000e+00  
 0.000000e+00  
 0.000000e+00  
 0.000000e+00  
 0.000000e+00  
 0.000000e+00  
 0.000000e+00  
 0.000000e+00  
 0.000000e+00  
 0.000000e+00  
 3.009374e-01  
 4.089162e-01  
 3.040083e-01  
 0.000000e+00  
 0.000000e+00  
 4.824946e-01  
 4.840792e-01  
 2.288266e-01  
 2.282310e-01  
 5.528903e-01  
 5.543059e-01  
 7.351908e-01  
 0.000000e+00  
 0.000000e+00  
 3.711782e-01  
 3.715352e-01  
 7.868512e-01  
 7.878419e-01  
 0.000000e+00  
 0.000000e+00  
 7.068815e-01  
 7.079092e-01  
 9.371273e-01  
 4.365124e-01  
 4.372292e-01  
 9.176158e-01  
 9.183390e-01  
 0.000000e+00  
 0.000000e+00  
 7.413427e-01  
 7.423399e-01  
 9.786165e-01  
 4.274113e-01  
 4.282518e-01  
 8.830321e-01  
 8.836740e-01  
 0.000000e+00  
 0.000000e+00  
 6.444700e-01  
 6.454356e-01  
 8.452105e-01  
 3.452123e-01  
 3.461625e-01  
 6.904587e-01  
 6.909648e-01  
 0.000000e+00  
 0.000000e+00  
 4.042033e-01  
 4.047220e-01  
 5.239074e-01  
 1.990357e-01  
 1.996781e-01  
 0.000000e+00  
 0.000000e+00  
 3.640845e-01  
 3.645036e-01  
 0.000000e+00  
 0.000000e+00  
 0.000000e+00  
 0.000000e+00  
 0.000000e+00  
 0.000000e+00  
 0.000000e+00  
 0.000000e+00  
 0.000000e+00  
  
 