# vtk DataFile Version 1.0 
PolyMesh 
ASCII 
 
DATASET POLYDATA 
 
POINTS 81 float 
0.000000e+00 0.000000e+00 0.000000e+00  
 1.250000e-01 0.000000e+00 0.000000e+00  
 2.500000e-01 0.000000e+00 0.000000e+00  
 3.750000e-01 0.000000e+00 0.000000e+00  
 5.000000e-01 0.000000e+00 0.000000e+00  
 6.250000e-01 0.000000e+00 0.000000e+00  
 7.500000e-01 0.000000e+00 0.000000e+00  
 8.750000e-01 0.000000e+00 0.000000e+00  
 1.000000e+00 0.000000e+00 0.000000e+00  
 0.000000e+00 1.250000e-01 0.000000e+00  
 1.250000e-01 1.250000e-01 0.000000e+00  
 2.500000e-01 1.250000e-01 0.000000e+00  
 3.750000e-01 1.250000e-01 0.000000e+00  
 5.000000e-01 1.250000e-01 0.000000e+00  
 6.250000e-01 1.250000e-01 0.000000e+00  
 7.500000e-01 1.250000e-01 0.000000e+00  
 8.750000e-01 1.250000e-01 0.000000e+00  
 1.000000e+00 1.250000e-01 0.000000e+00  
 0.000000e+00 2.500000e-01 0.000000e+00  
 1.250000e-01 2.500000e-01 0.000000e+00  
 2.500000e-01 2.500000e-01 0.000000e+00  
 3.750000e-01 2.500000e-01 0.000000e+00  
 5.000000e-01 2.500000e-01 0.000000e+00  
 6.250000e-01 2.500000e-01 0.000000e+00  
 7.500000e-01 2.500000e-01 0.000000e+00  
 8.750000e-01 2.500000e-01 0.000000e+00  
 1.000000e+00 2.500000e-01 0.000000e+00  
 0.000000e+00 3.750000e-01 0.000000e+00  
 1.250000e-01 3.750000e-01 0.000000e+00  
 2.500000e-01 3.750000e-01 0.000000e+00  
 3.750000e-01 3.750000e-01 0.000000e+00  
 5.000000e-01 3.750000e-01 0.000000e+00  
 6.250000e-01 3.750000e-01 0.000000e+00  
 7.500000e-01 3.750000e-01 0.000000e+00  
 8.750000e-01 3.750000e-01 0.000000e+00  
 1.000000e+00 3.750000e-01 0.000000e+00  
 0.000000e+00 5.000000e-01 0.000000e+00  
 1.250000e-01 5.000000e-01 0.000000e+00  
 2.500000e-01 5.000000e-01 0.000000e+00  
 3.750000e-01 5.000000e-01 0.000000e+00  
 5.000000e-01 5.000000e-01 0.000000e+00  
 6.250000e-01 5.000000e-01 0.000000e+00  
 7.500000e-01 5.000000e-01 0.000000e+00  
 8.750000e-01 5.000000e-01 0.000000e+00  
 1.000000e+00 5.000000e-01 0.000000e+00  
 0.000000e+00 6.250000e-01 0.000000e+00  
 1.250000e-01 6.250000e-01 0.000000e+00  
 2.500000e-01 6.250000e-01 0.000000e+00  
 3.750000e-01 6.250000e-01 0.000000e+00  
 5.000000e-01 6.250000e-01 0.000000e+00  
 6.250000e-01 6.250000e-01 0.000000e+00  
 7.500000e-01 6.250000e-01 0.000000e+00  
 8.750000e-01 6.250000e-01 0.000000e+00  
 1.000000e+00 6.250000e-01 0.000000e+00  
 0.000000e+00 7.500000e-01 0.000000e+00  
 1.250000e-01 7.500000e-01 0.000000e+00  
 2.500000e-01 7.500000e-01 0.000000e+00  
 3.750000e-01 7.500000e-01 0.000000e+00  
 5.000000e-01 7.500000e-01 0.000000e+00  
 6.250000e-01 7.500000e-01 0.000000e+00  
 7.500000e-01 7.500000e-01 0.000000e+00  
 8.750000e-01 7.500000e-01 0.000000e+00  
 1.000000e+00 7.500000e-01 0.000000e+00  
 0.000000e+00 8.750000e-01 0.000000e+00  
 1.250000e-01 8.750000e-01 0.000000e+00  
 2.500000e-01 8.750000e-01 0.000000e+00  
 3.750000e-01 8.750000e-01 0.000000e+00  
 5.000000e-01 8.750000e-01 0.000000e+00  
 6.250000e-01 8.750000e-01 0.000000e+00  
 7.500000e-01 8.750000e-01 0.000000e+00  
 8.750000e-01 8.750000e-01 0.000000e+00  
 1.000000e+00 8.750000e-01 0.000000e+00  
 0.000000e+00 1.000000e+00 0.000000e+00  
 1.250000e-01 1.000000e+00 0.000000e+00  
 2.500000e-01 1.000000e+00 0.000000e+00  
 3.750000e-01 1.000000e+00 0.000000e+00  
 5.000000e-01 1.000000e+00 0.000000e+00  
 6.250000e-01 1.000000e+00 0.000000e+00  
 7.500000e-01 1.000000e+00 0.000000e+00  
 8.750000e-01 1.000000e+00 0.000000e+00  
 1.000000e+00 1.000000e+00 0.000000e+00  
  
 POLYGONS 64 320 
 4 0  1  10  9   
 4 1  2  11  10   
 4 2  3  12  11   
 4 3  4  13  12   
 4 4  5  14  13   
 4 5  6  15  14   
 4 6  7  16  15   
 4 7  8  17  16   
 4 9  10  19  18   
 4 10  11  20  19   
 4 11  12  21  20   
 4 12  13  22  21   
 4 13  14  23  22   
 4 14  15  24  23   
 4 15  16  25  24   
 4 16  17  26  25   
 4 18  19  28  27   
 4 19  20  29  28   
 4 20  21  30  29   
 4 21  22  31  30   
 4 22  23  32  31   
 4 23  24  33  32   
 4 24  25  34  33   
 4 25  26  35  34   
 4 27  28  37  36   
 4 28  29  38  37   
 4 29  30  39  38   
 4 30  31  40  39   
 4 31  32  41  40   
 4 32  33  42  41   
 4 33  34  43  42   
 4 34  35  44  43   
 4 36  37  46  45   
 4 37  38  47  46   
 4 38  39  48  47   
 4 39  40  49  48   
 4 40  41  50  49   
 4 41  42  51  50   
 4 42  43  52  51   
 4 43  44  53  52   
 4 45  46  55  54   
 4 46  47  56  55   
 4 47  48  57  56   
 4 48  49  58  57   
 4 49  50  59  58   
 4 50  51  60  59   
 4 51  52  61  60   
 4 52  53  62  61   
 4 54  55  64  63   
 4 55  56  65  64   
 4 56  57  66  65   
 4 57  58  67  66   
 4 58  59  68  67   
 4 59  60  69  68   
 4 60  61  70  69   
 4 61  62  71  70   
 4 63  64  73  72   
 4 64  65  74  73   
 4 65  66  75  74   
 4 66  67  76  75   
 4 67  68  77  76   
 4 68  69  78  77   
 4 69  70  79  78   
 4 70  71  80  79   
  
 POINT_DATA 81 
 SCALARS Field float 1
 LOOKUP_TABLE default
0.000000e+00  
 0.000000e+00  
 0.000000e+00  
 0.000000e+00  
 0.000000e+00  
 0.000000e+00  
 0.000000e+00  
 0.000000e+00  
 0.000000e+00  
 0.000000e+00  
 7.515154e-03  
 1.388619e-02  
 1.814319e-02  
 1.963804e-02  
 1.814319e-02  
 1.388619e-02  
 7.515154e-03  
 0.000000e+00  
 0.000000e+00  
 1.388619e-02  
 2.565834e-02  
 3.352424e-02  
 3.628638e-02  
 3.352424e-02  
 2.565834e-02  
 1.388619e-02  
 0.000000e+00  
 0.000000e+00  
 1.814319e-02  
 3.352424e-02  
 4.380153e-02  
 4.741043e-02  
 4.380153e-02  
 3.352424e-02  
 1.814319e-02  
 0.000000e+00  
 0.000000e+00  
 1.963804e-02  
 3.628638e-02  
 4.741043e-02  
 5.131668e-02  
 4.741043e-02  
 3.628638e-02  
 1.963804e-02  
 0.000000e+00  
 0.000000e+00  
 1.814319e-02  
 3.352424e-02  
 4.380153e-02  
 4.741043e-02  
 4.380153e-02  
 3.352424e-02  
 1.814319e-02  
 0.000000e+00  
 0.000000e+00  
 1.388619e-02  
 2.565834e-02  
 3.352424e-02  
 3.628638e-02  
 3.352424e-02  
 2.565834e-02  
 1.388619e-02  
 0.000000e+00  
 0.000000e+00  
 7.515154e-03  
 1.388619e-02  
 1.814319e-02  
 1.963804e-02  
 1.814319e-02  
 1.388619e-02  
 7.515154e-03  
 0.000000e+00  
 0.000000e+00  
 0.000000e+00  
 0.000000e+00  
 0.000000e+00  
 0.000000e+00  
 0.000000e+00  
 0.000000e+00  
 0.000000e+00  
 0.000000e+00  
  
 