# vtk DataFile Version 1.0 
PolyMesh 
ASCII 
 
DATASET POLYDATA 
 
POINTS 128 float 
-1.407000e-13 8.815840e-02 0.000000e+00  
 -1.824000e-13 2.694016e-01 0.000000e+00  
 -1.815000e-13 4.513723e-01 0.000000e+00  
 -1.775000e-13 6.343587e-01 0.000000e+00  
 -1.147000e-13 8.185336e-01 0.000000e+00  
 0.000000e+00 0.000000e+00 0.000000e+00  
 0.000000e+00 1.000000e+00 0.000000e+00  
 1.642800e-12 9.096298e-01 0.000000e+00  
 2.020700e-12 1.786613e-01 0.000000e+00  
 2.025900e-12 3.602544e-01 0.000000e+00  
 2.033300e-12 5.428575e-01 0.000000e+00  
 2.042800e-12 7.268338e-01 0.000000e+00  
 8.229450e-02 7.249942e-01 0.000000e+00  
 8.252608e-02 5.423639e-01 0.000000e+00  
 8.268370e-02 3.602709e-01 0.000000e+00  
 8.279481e-02 1.788245e-01 0.000000e+00  
 8.490390e-02 1.000000e+00 0.000000e+00  
 8.961291e-02 1.479800e-12 0.000000e+00  
 9.209903e-02 9.031209e-01 0.000000e+00  
 1.149814e-01 4.510875e-01 0.000000e+00  
 1.151223e-01 2.695906e-01 0.000000e+00  
 1.152031e-01 6.331729e-01 0.000000e+00  
 1.167570e-01 8.931867e-02 0.000000e+00  
 1.181354e-01 8.139753e-01 0.000000e+00  
 1.704912e-01 1.000000e+00 0.000000e+00  
 1.809314e-01 5.415167e-01 0.000000e+00  
 1.810405e-01 3.602881e-01 0.000000e+00  
 1.817424e-01 1.799025e-01 0.000000e+00  
 1.819703e-01 7.224868e-01 0.000000e+00  
 1.884171e-01 1.573200e-12 0.000000e+00  
 1.918481e-01 9.035603e-01 0.000000e+00  
 2.267330e-01 4.506733e-01 0.000000e+00  
 2.270663e-01 2.702053e-01 0.000000e+00  
 2.272742e-01 6.314709e-01 0.000000e+00  
 2.290511e-01 9.045180e-02 0.000000e+00  
 2.305412e-01 8.123495e-01 0.000000e+00  
 2.610657e-01 1.000000e+00 0.000000e+00  
 2.855616e-01 3.604145e-01 0.000000e+00  
 2.855685e-01 5.406043e-01 0.000000e+00  
 2.864578e-01 1.806462e-01 0.000000e+00  
 2.868777e-01 7.212050e-01 0.000000e+00  
 2.909807e-01 1.619800e-12 0.000000e+00  
 2.941628e-01 9.037198e-01 0.000000e+00  
 3.365479e-01 4.503264e-01 0.000000e+00  
 3.368495e-01 2.706408e-01 0.000000e+00  
 3.370283e-01 6.304573e-01 0.000000e+00  
 3.383052e-01 9.081100e-02 0.000000e+00  
 3.394413e-01 8.117173e-01 0.000000e+00  
 3.552449e-01 1.000000e+00 0.000000e+00  
 3.924033e-01 3.604585e-01 0.000000e+00  
 3.924241e-01 5.400991e-01 0.000000e+00  
 3.929619e-01 1.809471e-01 0.000000e+00  
 3.932634e-01 7.205682e-01 0.000000e+00  
 3.951723e-01 1.643300e-12 0.000000e+00  
 3.970378e-01 9.040308e-01 0.000000e+00  
 4.455825e-01 4.501656e-01 0.000000e+00  
 4.457005e-01 2.707870e-01 0.000000e+00  
 4.457718e-01 6.300174e-01 0.000000e+00  
 4.462208e-01 9.089337e-02 0.000000e+00  
 4.466404e-01 8.115715e-01 0.000000e+00  
 4.515248e-01 1.000000e+00 0.000000e+00  
 5.000000e-01 5.399395e-01 0.000000e+00  
 5.000000e-01 7.204047e-01 0.000000e+00  
 5.000000e-01 3.604638e-01 0.000000e+00  
 5.000000e-01 9.041534e-01 0.000000e+00  
 5.000000e-01 1.810146e-01 0.000000e+00  
 5.000000e-01 1.650300e-12 0.000000e+00  
 5.484752e-01 1.000000e+00 0.000000e+00  
 5.533596e-01 8.115715e-01 0.000000e+00  
 5.537792e-01 9.089337e-02 0.000000e+00  
 5.542282e-01 6.300174e-01 0.000000e+00  
 5.542995e-01 2.707870e-01 0.000000e+00  
 5.544175e-01 4.501656e-01 0.000000e+00  
 6.029622e-01 9.040308e-01 0.000000e+00  
 6.048277e-01 1.643300e-12 0.000000e+00  
 6.067366e-01 7.205682e-01 0.000000e+00  
 6.070381e-01 1.809471e-01 0.000000e+00  
 6.075759e-01 5.400991e-01 0.000000e+00  
 6.075967e-01 3.604585e-01 0.000000e+00  
 6.447551e-01 1.000000e+00 0.000000e+00  
 6.605587e-01 8.117173e-01 0.000000e+00  
 6.616948e-01 9.081100e-02 0.000000e+00  
 6.629717e-01 6.304573e-01 0.000000e+00  
 6.631505e-01 2.706408e-01 0.000000e+00  
 6.634521e-01 4.503264e-01 0.000000e+00  
 7.058372e-01 9.037198e-01 0.000000e+00  
 7.090193e-01 1.619800e-12 0.000000e+00  
 7.131223e-01 7.212050e-01 0.000000e+00  
 7.135422e-01 1.806462e-01 0.000000e+00  
 7.144315e-01 5.406043e-01 0.000000e+00  
 7.144384e-01 3.604145e-01 0.000000e+00  
 7.389343e-01 1.000000e+00 0.000000e+00  
 7.694588e-01 8.123495e-01 0.000000e+00  
 7.709489e-01 9.045180e-02 0.000000e+00  
 7.727258e-01 6.314709e-01 0.000000e+00  
 7.729337e-01 2.702053e-01 0.000000e+00  
 7.732670e-01 4.506733e-01 0.000000e+00  
 8.081519e-01 9.035603e-01 0.000000e+00  
 8.115829e-01 1.573200e-12 0.000000e+00  
 8.180297e-01 7.224868e-01 0.000000e+00  
 8.182576e-01 1.799025e-01 0.000000e+00  
 8.189595e-01 3.602881e-01 0.000000e+00  
 8.190686e-01 5.415167e-01 0.000000e+00  
 8.295088e-01 1.000000e+00 0.000000e+00  
 8.818646e-01 8.139753e-01 0.000000e+00  
 8.832430e-01 8.931867e-02 0.000000e+00  
 8.847969e-01 6.331729e-01 0.000000e+00  
 8.848777e-01 2.695906e-01 0.000000e+00  
 8.850186e-01 4.510875e-01 0.000000e+00  
 9.079010e-01 9.031209e-01 0.000000e+00  
 9.103871e-01 1.479800e-12 0.000000e+00  
 9.150961e-01 1.000000e+00 0.000000e+00  
 9.172052e-01 1.788245e-01 0.000000e+00  
 9.173163e-01 3.602709e-01 0.000000e+00  
 9.174739e-01 5.423639e-01 0.000000e+00  
 9.177055e-01 7.249942e-01 0.000000e+00  
 1.000000e+00 7.268338e-01 0.000000e+00  
 1.000000e+00 5.428575e-01 0.000000e+00  
 1.000000e+00 3.602544e-01 0.000000e+00  
 1.000000e+00 1.786613e-01 0.000000e+00  
 1.000000e+00 9.096298e-01 0.000000e+00  
 1.000000e+00 2.694016e-01 0.000000e+00  
 1.000000e+00 4.513723e-01 0.000000e+00  
 1.000000e+00 6.343587e-01 0.000000e+00  
 1.000000e+00 8.815840e-02 0.000000e+00  
 1.000000e+00 8.185336e-01 0.000000e+00  
 1.000000e+00 0.000000e+00 0.000000e+00  
 1.000000e+00 1.000000e+00 0.000000e+00  
  
 POLYGONS 211 844 
 3 114  122  117   
 3 123  114  117   
 3 122  114  108   
 3 30  36  24   
 3 33  28  21   
 3 21  28  12   
 3 3  13  21   
 3 21  12  3   
 3 3  12  11   
 3 30  24  18   
 3 123  116  115   
 3 115  116  125   
 3 122  108  113   
 3 102  108  114   
 3 120  109  125   
 3 103  91  97   
 3 97  109  103   
 3 80  68  75   
 3 97  91  85   
 3 85  92  97   
 3 80  92  85   
 3 91  79  85   
 3 17  29  22   
 3 17  0  5   
 3 22  0  17   
 3 10  13  3   
 3 10  2  13   
 3 47  52  59   
 3 59  54  47   
 3 48  54  60   
 3 12  28  23   
 3 30  18  23   
 3 16  18  24   
 3 6  7  16   
 3 7  18  16   
 3 106  102  114   
 3 94  102  106   
 3 114  123  106   
 3 123  115  106   
 3 99  94  106   
 3 106  115  99   
 3 125  109  104   
 3 104  115  125   
 3 104  109  97   
 3 97  92  104   
 3 99  115  104   
 3 104  92  99   
 3 41  53  46   
 3 58  53  66   
 3 58  46  53   
 3 51  46  58   
 3 77  70  61   
 3 72  84  77   
 3 77  61  72   
 3 72  61  55   
 3 1  8  15   
 3 22  27  15   
 3 15  0  22   
 3 8  0  15   
 3 22  29  34   
 3 34  27  22   
 3 34  29  41   
 3 41  46  34   
 3 122  113  118   
 3 118  113  121   
 3 101  113  108   
 3 101  90  95   
 3 89  102  94   
 3 77  84  89   
 3 111  103  109   
 3 111  120  127   
 3 109  120  111   
 3 99  92  87   
 3 87  92  80   
 3 80  75  87   
 3 87  94  99   
 3 62  68  59   
 3 59  52  62   
 3 70  75  62   
 3 62  75  68   
 3 67  60  64   
 3 60  54  64   
 3 64  54  59   
 3 59  68  64   
 3 42  47  54   
 3 42  36  30   
 3 42  48  36   
 3 54  48  42   
 3 30  23  35   
 3 35  23  28   
 3 35  42  30   
 3 47  42  35   
 3 52  47  40   
 3 40  28  33   
 3 40  35  28   
 3 47  35  40   
 3 4  11  12   
 3 12  23  4   
 3 4  18  7   
 3 4  23  18   
 3 121  113  107   
 3 107  112  121   
 3 107  101  95   
 3 113  101  107   
 3 121  112  119   
 3 81  88  76   
 3 81  74  86   
 3 95  88  100   
 3 100  107  95   
 3 112  107  100   
 3 66  74  69   
 3 69  58  66   
 3 69  81  76   
 3 74  81  69   
 3 55  61  50   
 3 78  90  84   
 3 84  72  78   
 3 33  21  25   
 3 25  21  13   
 3 108  102  96   
 3 96  101  108   
 3 96  89  84   
 3 102  89  96   
 3 84  90  96   
 3 90  101  96   
 3 82  89  94   
 3 94  87  82   
 3 77  89  82   
 3 82  87  75   
 3 82  70  77   
 3 82  75  70   
 3 57  61  70   
 3 70  62  57   
 3 57  62  52   
 3 57  50  61   
 3 73  85  79   
 3 73  79  67   
 3 67  64  73   
 3 73  64  68   
 3 73  68  80   
 3 80  85  73   
 3 124  110  126   
 3 124  119  112   
 3 88  81  93   
 3 93  100  88   
 3 86  98  93   
 3 93  81  86   
 3 58  69  65   
 3 56  51  65   
 3 51  58  65   
 3 65  69  76   
 3 52  40  45   
 3 45  57  52   
 3 50  57  45   
 3 45  40  33   
 3 76  88  83   
 3 90  78  83   
 3 95  90  83   
 3 83  88  95   
 3 31  37  43   
 3 37  49  43   
 3 55  50  43   
 3 43  49  55   
 3 39  46  51   
 3 27  34  39   
 3 39  34  46   
 3 26  37  31   
 3 98  110  105   
 3 105  93  98   
 3 105  124  112   
 3 110  124  105   
 3 112  100  105   
 3 100  93  105   
 3 71  65  76   
 3 76  83  71   
 3 71  83  78   
 3 56  65  71   
 3 44  51  56   
 3 56  49  44   
 3 44  39  51   
 3 44  49  37   
 3 38  25  31   
 3 31  43  38   
 3 33  25  38   
 3 38  45  33   
 3 50  45  38   
 3 38  43  50   
 3 19  26  31   
 3 19  25  13   
 3 31  25  19   
 3 13  2  19   
 3 63  78  72   
 3 63  71  78   
 3 63  72  55   
 3 56  71  63   
 3 63  49  56   
 3 55  49  63   
 3 39  44  32   
 3 27  39  32   
 3 37  26  32   
 3 32  44  37   
 3 1  15  20   
 3 20  32  26   
 3 20  15  27   
 3 27  32  20   
 3 26  19  14   
 3 14  20  26   
 3 2  9  14   
 3 14  19  2   
 3 14  9  1   
 3 1  20  14   
  
 POINT_DATA 128 
 SCALARS Field float 1
 LOOKUP_TABLE default
0.000000e+00  
 0.000000e+00  
 0.000000e+00  
 0.000000e+00  
 0.000000e+00  
 0.000000e+00  
 0.000000e+00  
 0.000000e+00  
 0.000000e+00  
 0.000000e+00  
 0.000000e+00  
 0.000000e+00  
 2.373969e-01  
 2.968720e-01  
 2.760443e-01  
 1.755061e-01  
 0.000000e+00  
 0.000000e+00  
 1.164747e-01  
 3.994814e-01  
 3.177072e-01  
 3.751791e-01  
 1.322230e-01  
 2.498680e-01  
 0.000000e+00  
 5.828599e-01  
 5.412978e-01  
 3.471849e-01  
 4.724406e-01  
 0.000000e+00  
 2.128817e-01  
 6.885583e-01  
 5.487868e-01  
 6.481157e-01  
 2.298013e-01  
 4.278917e-01  
 0.000000e+00  
 7.460467e-01  
 8.037462e-01  
 4.796587e-01  
 6.519673e-01  
 0.000000e+00  
 2.851415e-01  
 8.772096e-01  
 6.996605e-01  
 8.258870e-01  
 2.928376e-01  
 5.426247e-01  
 0.000000e+00  
 8.724074e-01  
 9.399405e-01  
 5.608872e-01  
 7.618481e-01  
 0.000000e+00  
 3.283524e-01  
 9.707019e-01  
 7.742853e-01  
 9.138296e-01  
 3.237392e-01  
 5.987503e-01  
 0.000000e+00  
 9.857491e-01  
 7.986204e-01  
 9.149133e-01  
 3.426894e-01  
 5.881018e-01  
 0.000000e+00  
 0.000000e+00  
 5.987503e-01  
 3.237392e-01  
 9.138296e-01  
 7.742853e-01  
 9.707019e-01  
 3.283524e-01  
 0.000000e+00  
 7.618481e-01  
 5.608872e-01  
 9.399405e-01  
 8.724074e-01  
 0.000000e+00  
 5.426247e-01  
 2.928376e-01  
 8.258870e-01  
 6.996605e-01  
 8.772096e-01  
 2.851415e-01  
 0.000000e+00  
 6.519673e-01  
 4.796587e-01  
 8.037462e-01  
 7.460467e-01  
 0.000000e+00  
 4.278917e-01  
 2.298013e-01  
 6.481157e-01  
 5.487868e-01  
 6.885583e-01  
 2.128817e-01  
 0.000000e+00  
 4.724406e-01  
 3.471849e-01  
 5.412978e-01  
 5.828599e-01  
 0.000000e+00  
 2.498680e-01  
 1.322230e-01  
 3.751791e-01  
 3.177072e-01  
 3.994814e-01  
 1.164747e-01  
 0.000000e+00  
 0.000000e+00  
 1.755061e-01  
 2.760443e-01  
 2.968720e-01  
 2.373969e-01  
 0.000000e+00  
 0.000000e+00  
 0.000000e+00  
 0.000000e+00  
 0.000000e+00  
 0.000000e+00  
 0.000000e+00  
 0.000000e+00  
 0.000000e+00  
 0.000000e+00  
 0.000000e+00  
 0.000000e+00  
  
 