# vtk DataFile Version 1.0 
PolyMesh 
ASCII 
 
DATASET POLYDATA 
 
POINTS 2931 float 
-3.127000e-13 3.163730e-02 0.000000e+00  
 -2.574000e-13 6.367014e-02 0.000000e+00  
 -2.148000e-13 8.124987e-02 0.000000e+00  
 -2.529000e-13 9.712356e-02 0.000000e+00  
 -2.314000e-13 1.151751e-01 0.000000e+00  
 -2.497000e-13 1.312493e-01 0.000000e+00  
 -2.392000e-13 1.495214e-01 0.000000e+00  
 -2.481000e-13 1.657039e-01 0.000000e+00  
 -2.428000e-13 1.840878e-01 0.000000e+00  
 -2.474000e-13 2.003336e-01 0.000000e+00  
 -2.445000e-13 2.187804e-01 0.000000e+00  
 -2.469000e-13 2.350671e-01 0.000000e+00  
 -2.453000e-13 2.535538e-01 0.000000e+00  
 -2.466000e-13 2.698702e-01 0.000000e+00  
 -2.456000e-13 2.883859e-01 0.000000e+00  
 -2.463000e-13 3.047266e-01 0.000000e+00  
 -2.456000e-13 3.232663e-01 0.000000e+00  
 -2.460000e-13 3.396291e-01 0.000000e+00  
 -2.455000e-13 3.581911e-01 0.000000e+00  
 -2.457000e-13 3.745758e-01 0.000000e+00  
 -2.454000e-13 3.931600e-01 0.000000e+00  
 -2.455000e-13 4.095673e-01 0.000000e+00  
 -2.452000e-13 4.281747e-01 0.000000e+00  
 -2.452000e-13 4.446062e-01 0.000000e+00  
 -2.450000e-13 4.632383e-01 0.000000e+00  
 -2.451000e-13 4.796961e-01 0.000000e+00  
 -2.449000e-13 4.983550e-01 0.000000e+00  
 -2.449000e-13 5.148415e-01 0.000000e+00  
 -2.447000e-13 5.335298e-01 0.000000e+00  
 -2.448000e-13 5.500479e-01 0.000000e+00  
 -2.446000e-13 5.687686e-01 0.000000e+00  
 -2.448000e-13 5.853218e-01 0.000000e+00  
 -2.446000e-13 6.040785e-01 0.000000e+00  
 -2.449000e-13 6.206709e-01 0.000000e+00  
 -2.447000e-13 6.394680e-01 0.000000e+00  
 -2.451000e-13 6.561047e-01 0.000000e+00  
 -2.449000e-13 6.749476e-01 0.000000e+00  
 -2.454000e-13 6.916349e-01 0.000000e+00  
 -2.452000e-13 7.105308e-01 0.000000e+00  
 -2.460000e-13 7.272772e-01 0.000000e+00  
 -2.456000e-13 7.462360e-01 0.000000e+00  
 -2.467000e-13 7.630532e-01 0.000000e+00  
 -2.463000e-13 7.820891e-01 0.000000e+00  
 -2.477000e-13 7.989946e-01 0.000000e+00  
 -2.472000e-13 8.181292e-01 0.000000e+00  
 -2.489000e-13 8.351500e-01 0.000000e+00  
 -2.485000e-13 8.544165e-01 0.000000e+00  
 -2.495000e-13 8.715958e-01 0.000000e+00  
 -2.515000e-13 8.910415e-01 0.000000e+00  
 -2.450000e-13 9.084604e-01 0.000000e+00  
 -2.501000e-13 9.281436e-01 0.000000e+00  
 -2.070000e-13 9.457756e-01 0.000000e+00  
 -2.258000e-13 9.654504e-01 0.000000e+00  
 -2.425000e-13 9.830500e-01 0.000000e+00  
 0.000000e+00 0.000000e+00 0.000000e+00  
 8.030000e-14 1.595237e-02 0.000000e+00  
 0.000000e+00 1.000000e+00 0.000000e+00  
 1.441000e-13 4.821077e-02 0.000000e+00  
 1.617763e-02 9.178477e-01 0.000000e+00  
 1.621089e-02 8.807892e-01 0.000000e+00  
 1.624867e-02 8.444042e-01 0.000000e+00  
 1.628406e-02 8.082990e-01 0.000000e+00  
 1.631142e-02 7.723875e-01 0.000000e+00  
 1.633212e-02 7.366260e-01 0.000000e+00  
 1.634788e-02 7.009885e-01 0.000000e+00  
 1.635997e-02 6.654571e-01 0.000000e+00  
 1.636925e-02 6.300186e-01 0.000000e+00  
 1.637634e-02 5.946622e-01 0.000000e+00  
 1.638170e-02 5.593795e-01 0.000000e+00  
 1.638570e-02 5.241629e-01 0.000000e+00  
 1.638863e-02 4.890062e-01 0.000000e+00  
 1.639077e-02 4.539037e-01 0.000000e+00  
 1.639237e-02 4.188504e-01 0.000000e+00  
 1.639369e-02 3.838419e-01 0.000000e+00  
 1.639507e-02 3.488741e-01 0.000000e+00  
 1.639696e-02 3.139435e-01 0.000000e+00  
 1.640012e-02 2.790465e-01 0.000000e+00  
 1.640594e-02 2.441796e-01 0.000000e+00  
 1.641702e-02 2.093375e-01 0.000000e+00  
 1.643711e-02 3.364322e-02 0.000000e+00  
 1.643850e-02 1.745088e-01 0.000000e+00  
 1.644951e-02 9.563664e-01 0.000000e+00  
 1.648010e-02 1.396633e-01 0.000000e+00  
 1.655677e-02 1.047232e-01 0.000000e+00  
 1.665349e-02 6.948813e-02 0.000000e+00  
 1.679381e-02 1.000000e+00 0.000000e+00  
 1.744881e-02 -2.795000e-13 0.000000e+00  
 1.829714e-02 9.799646e-01 0.000000e+00  
 2.088630e-02 8.988659e-01 0.000000e+00  
 2.090009e-02 9.360231e-01 0.000000e+00  
 2.104130e-02 8.623898e-01 0.000000e+00  
 2.111930e-02 8.262253e-01 0.000000e+00  
 2.116655e-02 5.185640e-02 0.000000e+00  
 2.117642e-02 7.902603e-01 0.000000e+00  
 2.122064e-02 7.544496e-01 0.000000e+00  
 2.125604e-02 7.187666e-01 0.000000e+00  
 2.128478e-02 6.831932e-01 0.000000e+00  
 2.130820e-02 6.477158e-01 0.000000e+00  
 2.131277e-02 8.716011e-02 0.000000e+00  
 2.132723e-02 6.123236e-01 0.000000e+00  
 2.134260e-02 5.770078e-01 0.000000e+00  
 2.135488e-02 5.417606e-01 0.000000e+00  
 2.136461e-02 5.065756e-01 0.000000e+00  
 2.137222e-02 4.714468e-01 0.000000e+00  
 2.137814e-02 4.363691e-01 0.000000e+00  
 2.138036e-02 1.221750e-01 0.000000e+00  
 2.138275e-02 4.013378e-01 0.000000e+00  
 2.138640e-02 3.663486e-01 0.000000e+00  
 2.138945e-02 3.313976e-01 0.000000e+00  
 2.139227e-02 2.964812e-01 0.000000e+00  
 2.139521e-02 2.615956e-01 0.000000e+00  
 2.139839e-02 2.267363e-01 0.000000e+00  
 2.139890e-02 1.570560e-01 0.000000e+00  
 2.140095e-02 1.918957e-01 0.000000e+00  
 2.232730e-02 1.690903e-02 0.000000e+00  
 3.094360e-02 9.667742e-01 0.000000e+00  
 3.360153e-02 1.000000e+00 0.000000e+00  
 3.371773e-02 9.160244e-01 0.000000e+00  
 3.398493e-02 8.799834e-01 0.000000e+00  
 3.411882e-02 8.439190e-01 0.000000e+00  
 3.421058e-02 8.079933e-01 0.000000e+00  
 3.428194e-02 7.721872e-01 0.000000e+00  
 3.433907e-02 7.364920e-01 0.000000e+00  
 3.438550e-02 7.008978e-01 0.000000e+00  
 3.442344e-02 6.653955e-01 0.000000e+00  
 3.445442e-02 6.299767e-01 0.000000e+00  
 3.447961e-02 5.946337e-01 0.000000e+00  
 3.449995e-02 5.593596e-01 0.000000e+00  
 3.451623e-02 5.241482e-01 0.000000e+00  
 3.452660e-02 6.944795e-02 0.000000e+00  
 3.452917e-02 4.889937e-01 0.000000e+00  
 3.453938e-02 4.538911e-01 0.000000e+00  
 3.454744e-02 4.188355e-01 0.000000e+00  
 3.455388e-02 3.838223e-01 0.000000e+00  
 3.455924e-02 3.488472e-01 0.000000e+00  
 3.456408e-02 3.139059e-01 0.000000e+00  
 3.456903e-02 2.789939e-01 0.000000e+00  
 3.457483e-02 2.441056e-01 0.000000e+00  
 3.458113e-02 1.044916e-01 0.000000e+00  
 3.458194e-02 2.092328e-01 0.000000e+00  
 3.458956e-02 1.743611e-01 0.000000e+00  
 3.459328e-02 1.394624e-01 0.000000e+00  
 3.472560e-02 3.479497e-02 0.000000e+00  
 3.626836e-02 9.485130e-01 0.000000e+00  
 3.628106e-02 -2.755000e-13 0.000000e+00  
 3.972093e-02 9.832546e-01 0.000000e+00  
 4.198224e-02 8.973361e-01 0.000000e+00  
 4.203734e-02 8.615424e-01 0.000000e+00  
 4.213800e-02 8.256967e-01 0.000000e+00  
 4.222494e-02 7.899151e-01 0.000000e+00  
 4.230064e-02 7.542174e-01 0.000000e+00  
 4.236543e-02 7.186074e-01 0.000000e+00  
 4.242017e-02 6.830827e-01 0.000000e+00  
 4.246582e-02 6.476384e-01 0.000000e+00  
 4.250336e-02 6.122688e-01 0.000000e+00  
 4.250568e-02 8.691797e-02 0.000000e+00  
 4.253375e-02 5.769681e-01 0.000000e+00  
 4.255610e-02 1.218922e-01 0.000000e+00  
 4.255795e-02 5.417305e-01 0.000000e+00  
 4.257686e-02 5.065508e-01 0.000000e+00  
 4.259133e-02 4.714238e-01 0.000000e+00  
 4.259715e-02 1.568299e-01 0.000000e+00  
 4.260214e-02 4.363448e-01 0.000000e+00  
 4.260999e-02 4.013091e-01 0.000000e+00  
 4.261543e-02 1.917297e-01 0.000000e+00  
 4.261550e-02 3.663124e-01 0.000000e+00  
 4.261920e-02 3.313500e-01 0.000000e+00  
 4.262140e-02 2.266164e-01 0.000000e+00  
 4.262148e-02 2.964172e-01 0.000000e+00  
 4.262244e-02 2.615085e-01 0.000000e+00  
 4.263215e-02 5.212511e-02 0.000000e+00  
 4.340382e-02 9.314277e-01 0.000000e+00  
 4.357982e-02 1.747373e-02 0.000000e+00  
 4.984703e-02 9.650353e-01 0.000000e+00  
 5.262595e-02 1.000000e+00 0.000000e+00  
 5.338106e-02 8.788097e-01 0.000000e+00  
 5.344450e-02 8.432239e-01 0.000000e+00  
 5.353680e-02 8.075401e-01 0.000000e+00  
 5.362502e-02 7.718818e-01 0.000000e+00  
 5.370430e-02 7.362812e-01 0.000000e+00  
 5.377332e-02 7.007499e-01 0.000000e+00  
 5.383220e-02 6.652902e-01 0.000000e+00  
 5.388160e-02 6.299005e-01 0.000000e+00  
 5.392242e-02 5.945772e-01 0.000000e+00  
 5.395563e-02 5.593161e-01 0.000000e+00  
 5.398222e-02 5.241125e-01 0.000000e+00  
 5.399288e-02 1.043488e-01 0.000000e+00  
 5.399504e-02 9.134545e-01 0.000000e+00  
 5.400318e-02 4.889619e-01 0.000000e+00  
 5.401939e-02 4.538598e-01 0.000000e+00  
 5.402021e-02 1.392745e-01 0.000000e+00  
 5.403169e-02 4.188017e-01 0.000000e+00  
 5.404080e-02 3.837830e-01 0.000000e+00  
 5.404317e-02 1.741968e-01 0.000000e+00  
 5.404735e-02 3.487993e-01 0.000000e+00  
 5.405185e-02 3.138457e-01 0.000000e+00  
 5.405301e-02 2.091031e-01 0.000000e+00  
 5.405460e-02 2.789168e-01 0.000000e+00  
 5.405546e-02 2.440056e-01 0.000000e+00  
 5.405860e-02 6.953601e-02 0.000000e+00  
 5.443934e-02 3.488216e-02 0.000000e+00  
 5.567246e-02 -2.763000e-13 0.000000e+00  
 5.685633e-02 9.471612e-01 0.000000e+00  
 6.013178e-02 9.822077e-01 0.000000e+00  
 6.274903e-02 8.606098e-01 0.000000e+00  
 6.276594e-02 8.251010e-01 0.000000e+00  
 6.283955e-02 7.895132e-01 0.000000e+00  
 6.292213e-02 7.539394e-01 0.000000e+00  
 6.300130e-02 7.184116e-01 0.000000e+00  
 6.307245e-02 6.829427e-01 0.000000e+00  
 6.313403e-02 6.475367e-01 0.000000e+00  
 6.316262e-02 8.955946e-01 0.000000e+00  
 6.318588e-02 6.121933e-01 0.000000e+00  
 6.322854e-02 5.769102e-01 0.000000e+00  
 6.326284e-02 5.416839e-01 0.000000e+00  
 6.326808e-02 1.217801e-01 0.000000e+00  
 6.328979e-02 5.065106e-01 0.000000e+00  
 6.329725e-02 1.566850e-01 0.000000e+00  
 6.330202e-02 8.694565e-02 0.000000e+00  
 6.331040e-02 4.713861e-01 0.000000e+00  
 6.332336e-02 1.915971e-01 0.000000e+00  
 6.332564e-02 4.363063e-01 0.000000e+00  
 6.333636e-02 4.012669e-01 0.000000e+00  
 6.333800e-02 2.265063e-01 0.000000e+00  
 6.334328e-02 3.662635e-01 0.000000e+00  
 6.334504e-02 2.614194e-01 0.000000e+00  
 6.334694e-02 3.312914e-01 0.000000e+00  
 6.334760e-02 2.963453e-01 0.000000e+00  
 6.354020e-02 5.223110e-02 0.000000e+00  
 6.429199e-02 1.750526e-02 0.000000e+00  
 6.492698e-02 9.297301e-01 0.000000e+00  
 6.937255e-02 9.642824e-01 0.000000e+00  
 7.166484e-02 1.000000e+00 0.000000e+00  
 7.342246e-02 8.424995e-01 0.000000e+00  
[...]
 POINT_DATA 2931 
 SCALARS Field float 1
 LOOKUP_TABLE default
0.000000e+00  
 0.000000e+00  
 0.000000e+00  
 0.000000e+00  
 0.000000e+00  
 0.000000e+00  
 0.000000e+00  
 0.000000e+00  
 0.000000e+00  
 0.000000e+00  
 0.000000e+00  
 0.000000e+00  
 0.000000e+00  
 0.000000e+00  
 0.000000e+00  
 0.000000e+00  
 0.000000e+00  
 0.000000e+00  
 0.000000e+00  
 0.000000e+00  
 0.000000e+00  
 0.000000e+00  
 0.000000e+00  
 0.000000e+00  
 0.000000e+00  
 0.000000e+00  
 0.000000e+00  
 0.000000e+00  
 0.000000e+00  
 0.000000e+00  
 0.000000e+00  
 0.000000e+00  
 0.000000e+00  
 0.000000e+00  
 0.000000e+00  
 0.000000e+00  
 0.000000e+00  
 0.000000e+00  
 0.000000e+00  
 0.000000e+00  
 0.000000e+00  
 0.000000e+00  
 0.000000e+00  
 0.000000e+00  
 0.000000e+00  
 0.000000e+00  
 0.000000e+00  
 0.000000e+00  
 0.000000e+00  
 0.000000e+00  
 0.000000e+00  
 0.000000e+00  
 0.000000e+00  
 0.000000e+00  
 0.000000e+00  
 0.000000e+00  
 0.000000e+00  
 0.000000e+00  
 1.917759e-02  
 2.674543e-02  
 3.353715e-02  
 3.963467e-02  
 4.504198e-02  
 4.976747e-02  
 5.381917e-02  
 5.720411e-02  
 5.992836e-02  
 6.199727e-02  
 6.341568e-02  
 6.418797e-02  
 6.431822e-02  
 6.381019e-02  
 6.266738e-02  
 6.089307e-02  
 5.849043e-02  
 5.546264e-02  
 5.181308e-02  
 4.754566e-02  
 4.266490e-02  
 8.309674e-03  
 3.717494e-02  
 1.070762e-02  
 3.107441e-02  
 2.433641e-02  
 1.683543e-02  
 0.000000e+00  
 0.000000e+00  
 5.729033e-03  
 2.971108e-02  
 1.951602e-02  
 3.910528e-02  
 4.749681e-02  
 1.627317e-02  
 5.498362e-02  
 6.158395e-02  
 6.730928e-02  
 7.216741e-02  
 7.616461e-02  
 2.654590e-02  
 7.930640e-02  
 8.159797e-02  
 8.304432e-02  
 8.365035e-02  
 8.342078e-02  
 8.236016e-02  
 3.590953e-02  
 8.047277e-02  
 7.776263e-02  
 7.423344e-02  
 6.988853e-02  
 6.473065e-02  
 5.876114e-02  
 4.436927e-02  
 5.197761e-02  
 5.783070e-03  
 1.532055e-02  
 0.000000e+00  
 4.001787e-02  
 5.540665e-02  
 6.938586e-02  
 8.194527e-02  
 9.311106e-02  
 1.028907e-01  
 1.112921e-01  
 1.183233e-01  
 1.239919e-01  
 1.283056e-01  
 1.312720e-01  
 1.328987e-01  
 3.440634e-02  
 1.331928e-01  
 1.321614e-01  
 1.298111e-01  
 1.261481e-01  
 1.211779e-01  
 1.149057e-01  
 1.073360e-01  
 9.847176e-02  
 4.992551e-02  
 8.831304e-02  
 7.685248e-02  
 6.406917e-02  
 1.798184e-02  
 2.730067e-02  
 0.000000e+00  
 9.891594e-03  
 5.922658e-02  
 7.680354e-02  
 9.289007e-02  
 1.073266e-01  
 1.201000e-01  
 1.312041e-01  
 1.406393e-01  
 1.484092e-01  
 1.545195e-01  
 5.162873e-02  
 1.589771e-01  
 6.972881e-02  
 1.617898e-01  
 1.629661e-01  
 1.625142e-01  
 8.623693e-02  
 1.604426e-01  
 1.567589e-01  
 1.011118e-01  
 1.514704e-01  
 1.445834e-01  
 1.143712e-01  
 1.361030e-01  
 1.260324e-01  
 3.223198e-02  
 4.241615e-02  
 1.143592e-02  
 2.552295e-02  
 0.000000e+00  
 8.603476e-02  
 1.069225e-01  
 1.259192e-01  
 1.428874e-01  
 1.577926e-01  
 1.706217e-01  
 1.813723e-01  
 1.900474e-01  
 1.966531e-01  
 2.011976e-01  
 2.036900e-01  
 7.631347e-02  
 6.456976e-02  
 2.041400e-01  
 2.025573e-01  
 9.794389e-02  
 1.989511e-01  
 1.933302e-01  
 1.175884e-01  
 1.857022e-01  
 1.760736e-01  
 1.352137e-01  
 1.644491e-01  
 1.508303e-01  
 5.288429e-02  
 2.770095e-02  
 0.000000e+00  
 4.289792e-02  
 1.576080e-02  
 1.128076e-01  
 1.357457e-01  
 1.564985e-01  
 1.749245e-01  
 1.909764e-01  
 2.046341e-01  
 2.158911e-01  
 8.847859e-02  
 2.247484e-01  
 2.312114e-01  
 2.352885e-01  
 1.013437e-01  
 2.369895e-01  
 1.252734e-01  
 7.525496e-02  
 2.363250e-01  
 1.469092e-01  
 2.333058e-01  
 2.279419e-01  
 1.662176e-01  
 2.202426e-01  
 1.832021e-01  
 2.102160e-01  
 1.978680e-01  
 4.708862e-02  
 1.653377e-02  
 6.342525e-02  
 3.554603e-02  
 0.000000e+00  
 1.443483e-01  
 1.694492e-01  
 1.919858e-01  
 2.118351e-01  
 1.171775e-01  
 2.289488e-01  
 2.433057e-01  
 2.548991e-01  
 2.637301e-01  
 2.698051e-01  
 2.731332e-01  
 1.312392e-01  
 2.737252e-01  
 1.023916e-01  
 1.575296e-01  
 2.715927e-01  
 2.667467e-01  
 1.811702e-01  
 2.591980e-01  
 2.021342e-01  
 2.489559e-01  
 2.204200e-01  
 2.360281e-01  
 7.107498e-02  
 3.716729e-02  
 8.859542e-02  
 0.000000e+00  
 5.772857e-02  
 2.078743e-02  
 1.765981e-01  
 2.031604e-01  
 2.268205e-01  
 2.474696e-01  
 1.474643e-01  
 2.650597e-01  
 2.795691e-01  
 2.909904e-01  
 2.993251e-01  
 3.045800e-01  
 3.067651e-01  
 1.621174e-01  
 1.312618e-01  
 3.058919e-01  
 1.900725e-01  
 3.019725e-01  
 2.150597e-01  
 2.950189e-01  
 2.370555e-01  
 2.850419e-01  
 2.560537e-01  
 2.720510e-01  
 9.758799e-02  
 1.162833e-01  
 6.105989e-02  
 2.132745e-02  
 8.281452e-02  
 4.494103e-02  
 0.000000e+00  
 2.117179e-01  
 2.395203e-01  
 2.640611e-01  
 1.808849e-01  
 2.852484e-01  
 3.030388e-01  
 3.174126e-01  
 3.283641e-01  
 3.358958e-01  
 3.400156e-01  
 3.407343e-01  
 1.960452e-01  
 1.634066e-01  
 3.380644e-01  
 2.254348e-01  
 3.320183e-01  
 2.515258e-01  
 3.226083e-01  
 2.742967e-01  
 3.098453e-01  
 2.937388e-01  
 1.474169e-01  
 1.275876e-01  
 8.859737e-02  
 4.624342e-02  
 1.113816e-01  
 0.000000e+00  
 7.154658e-02  
 2.545013e-02  
 2.476231e-01  
 2.761716e-01  
 2.156467e-01  
 3.011215e-01  
 3.223949e-01  
 3.399531e-01  
 3.537789e-01  
 3.638680e-01  
 1.805361e-01  
 3.702244e-01  
 3.728571e-01  
 3.717778e-01  
 1.970849e-01  
 2.309922e-01  
 2.613280e-01  
 3.669995e-01  
 2.880528e-01  
 3.585354e-01  
 3.111467e-01  
 3.463978e-01  
 3.305982e-01  
 1.596616e-01  
 1.187507e-01  
 7.425185e-02  
 1.424620e-01  
 2.584387e-02  
 1.007680e-01  
 5.380969e-02  
 0.000000e+00  
 2.851219e-01  
 2.523429e-01  
 3.140946e-01  
 3.391316e-01  
 3.601680e-01  
 3.771712e-01  
 2.159778e-01  
 3.901273e-01  
 3.990345e-01  
 4.038984e-01  
 4.047292e-01  
 4.015394e-01  
 2.328904e-01  
 2.677452e-01  
 2.987084e-01  
 3.943428e-01  
 3.257476e-01  
 3.831527e-01  
 1.941893e-01  
 3.488432e-01  
 3.679822e-01  
 1.516755e-01  
 1.053046e-01  
 1.762167e-01  
 5.487378e-02  
 0.000000e+00  
 1.327624e-01  
 8.451186e-02  
 2.981157e-02  
 3.231079e-01  
 2.899606e-01  
 3.520986e-01  
 3.768318e-01  
 2.528244e-01  
 3.972538e-01  
 4.133377e-01  
 4.250732e-01  
 4.324610e-01  
 4.355082e-01  
 4.342263e-01  
 2.698238e-01  
 4.286289e-01  
 3.052112e-01  
 3.364012e-01  
 4.187300e-01  
 2.302767e-01  
 3.633654e-01  
 4.045440e-01  
 3.860846e-01  
 1.866032e-01  
 2.118741e-01  
 1.387900e-01  
 8.671338e-02  
 3.011066e-02  
 1.670091e-01  
 1.175238e-01  
 6.218454e-02  
 0.000000e+00  
 3.286015e-01  
 3.617633e-01  
 3.904323e-01  
 2.910766e-01  
 4.145291e-01  
 4.340101e-01  
 4.488543e-01  
 4.590553e-01  
 4.646161e-01  
 4.655458e-01  
 2.493386e-01  
 4.618570e-01  
 3.079924e-01  
 4.535641e-01  
 3.435718e-01  
 3.746532e-01  
 4.406821e-01  
 2.679475e-01  
 4.012110e-01  
 4.232260e-01  
 2.234684e-01  
 1.745580e-01  
 1.211452e-01  
 2.033892e-01  
 6.304856e-02  
 0.000000e+00  
 1.528082e-01  
 9.669755e-02  
 3.391771e-02  
 3.676450e-01  
 4.004444e-01  
 3.301357e-01  
 4.284325e-01  
 4.515462e-01  
 4.697510e-01  
 4.830313e-01  
 2.880418e-01  
 4.913845e-01  
 4.948161e-01  
 4.933368e-01  
 4.869606e-01  
 3.467781e-01  
 3.821842e-01  
 4.757027e-01  
 4.128016e-01  
 3.066124e-01  
 4.595792e-01  
 4.386064e-01  
 2.617159e-01  
 2.121001e-01  
 1.577269e-01  
 2.414114e-01  
 9.847505e-02  
 3.414189e-02  
 1.900129e-01  
 1.332132e-01  
 7.008801e-02  
 0.000000e+00  
 4.069714e-01  
 4.390673e-01  
 3.698381e-01  
 4.660460e-01  
 4.878578e-01  
 3.277706e-01  
 5.044763e-01  
 5.158914e-01  
 5.221036e-01  
 5.231211e-01  
 5.189564e-01  
 5.096244e-01  
 3.860664e-01  
 4.951417e-01  
 4.209664e-01  
 4.507937e-01  
 4.755254e-01  
 3.461202e-01  
 3.011547e-01  
 2.511859e-01  
 2.808349e-01  
 1.961963e-01  
 1.361076e-01  
 7.076972e-02  
 2.289182e-01  
 0.000000e+00  
 1.715950e-01  
 1.081520e-01  
 3.778816e-02  
 4.461536e-01  
 4.097547e-01  
 4.772063e-01  
 5.028496e-01  
 3.680936e-01  
 5.230452e-01  
 5.377740e-01  
 5.470304e-01  
 5.508186e-01  
 5.491489e-01  
 5.420354e-01  
 5.294945e-01  
 5.115439e-01  
 4.254295e-01  
 4.594901e-01  
 4.882024e-01  
 3.860453e-01  
 3.212396e-01  
 3.413631e-01  
 2.914010e-01  
 2.361545e-01  
 1.755751e-01  
 1.095555e-01  
 2.691506e-01  
 3.794454e-02  
 2.115535e-01  
 1.479137e-01  
 7.753378e-02  
 0.000000e+00  
 4.496560e-01  
 4.849865e-01  
 5.146771e-01  
 4.087536e-01  
 5.386783e-01  
 5.569614e-01  
 5.695138e-01  
 5.763344e-01  
 3.623446e-01  
 5.774305e-01  
 5.728144e-01  
 5.625019e-01  
 5.465109e-01  
 5.248603e-01  
 4.975707e-01  
 4.646642e-01  
 4.261646e-01  
 3.820963e-01  
 3.324786e-01  
 2.773154e-01  
 2.165784e-01  
 3.104269e-01  
 1.501934e-01  
 7.804137e-02  
 0.000000e+00  
 2.528351e-01  
 1.891825e-01  
 1.189049e-01  
 4.143250e-02  
 4.892046e-01  
 5.231428e-01  
 4.494018e-01  
 5.511620e-01  
 5.732244e-01  
 5.893094e-01  
 4.037928e-01  
 5.994101e-01  
 6.035296e-01  
 6.016778e-01  
 5.938694e-01  
 5.801216e-01  
 5.604536e-01  
 5.348860e-01  
 5.034408e-01  
 4.661412e-01  
 4.230108e-01  
 3.740697e-01  
 3.193272e-01  
 3.523964e-01  
 2.587690e-01  
 1.923453e-01  
 1.199664e-01  
 2.951193e-01  
 4.152189e-02  
 2.316919e-01  
 1.616719e-01  
 8.453060e-02  
 0.000000e+00  
 5.281558e-01  
 4.897743e-01  
 5.603954e-01  
 5.864502e-01  
 4.453009e-01  
 6.062922e-01  
 6.199081e-01  
 6.272962e-01  
 6.284632e-01  
 6.234217e-01  
 6.121879e-01  
 5.947809e-01  
 5.712212e-01  
 5.415306e-01  
 5.057321e-01  
 4.638487e-01  
 3.947640e-01  
 4.159010e-01  
 3.619018e-01  
 3.018467e-01  
 2.357040e-01  
 1.634080e-01  
 3.381171e-01  
 8.486706e-02  
 0.000000e+00  
 2.751789e-01  
 2.056139e-01  
 1.289753e-01  
 4.485510e-02  
 5.662270e-01  
 5.295749e-01  
 5.964743e-01  
 4.865594e-01  
 6.202841e-01  
 6.376368e-01  
 6.485254e-01  
 6.529526e-01  
 4.372118e-01  
 6.509286e-01  
 6.424681e-01  
 6.275894e-01  
 6.063126e-01  
 5.786596e-01  
 5.446529e-01  
 5.043154e-01  
 4.576681e-01  
 4.047261e-01  
 3.454921e-01  
 2.799475e-01  
 3.815143e-01  
 2.080461e-01  
 1.297152e-01  
 4.487539e-02  
 3.193503e-01  
 2.504724e-01  
 1.745177e-01  
 9.108388e-02  
 0.000000e+00  
 5.685510e-01  
 6.031819e-01  
 5.272992e-01  
 6.311587e-01  
 6.524573e-01  
 6.670657e-01  
 4.794562e-01  
 6.749823e-01  
 6.762139e-01  
 6.707735e-01  
 6.586779e-01  
 6.399469e-01  
 6.146020e-01  
 5.826655e-01  
 5.441601e-01  
 4.991070e-01  
 4.475233e-01  
 3.894166e-01  
 4.250214e-01  
 3.247780e-01  
 2.535766e-01  
 1.757570e-01  
 3.639232e-01  
 9.124930e-02  
 0.000000e+00  
 2.959847e-01  
 2.209201e-01  
 1.383755e-01  
 4.805780e-02  
 6.064445e-01  
 6.387764e-01  
 5.672474e-01  
 6.642179e-01  
 6.827526e-01  
 5.212115e-01  
 6.943747e-01  
 6.990877e-01  
 6.969018e-01  
 6.878325e-01  
 6.718984e-01  
 6.491206e-01  
 6.195213e-01  
 5.831229e-01  
 4.683450e-01  
 5.399470e-01  
 4.900119e-01  
 4.333287e-01  
 3.698962e-01  
 2.996949e-01  
 4.086068e-01  
 2.226844e-01  
 1.388070e-01  
 4.800563e-02  
 3.418739e-01  
 2.679275e-01  
 1.864707e-01  
 9.719691e-02  
 0.000000e+00  
 6.430231e-01  
 6.061565e-01  
 6.727932e-01  
 6.954488e-01  
 5.622153e-01  
 7.109805e-01  
 7.193881e-01  
 7.206790e-01  
 7.148667e-01  
 5.112111e-01  
 7.019686e-01  
 6.820051e-01  
 6.549978e-01  
 6.209692e-01  
 5.799411e-01  
 5.319327e-01  
 4.769579e-01  
 4.150210e-01  
 3.461115e-01  
 4.531228e-01  
 2.702012e-01  
 1.872449e-01  
 9.718974e-02  
 3.878674e-01  
 0.000000e+00  
 3.152811e-01  
 2.351233e-01  
 1.471136e-01  
 5.104114e-02  
 6.437851e-01  
 6.780597e-01  
 7.050193e-01  
 6.022118e-01  
 7.246523e-01  
 7.369554e-01  
 5.533521e-01  
 7.419331e-01  
 7.395965e-01  
 7.299615e-01  
 7.130474e-01  
 6.888755e-01  
 6.574679e-01  
 6.188466e-01  
 5.730316e-01  
 5.200389e-01  
 4.971966e-01  
 4.598768e-01  
 3.925420e-01  
 3.180164e-01  
 2.362657e-01  
 4.336912e-01  
 1.472450e-01  
 5.091277e-02  
 3.627162e-01  
 2.840813e-01  
 1.975444e-01  
 1.028716e-01  
 0.000000e+00  
 6.799098e-01  
 7.113460e-01  
 6.409632e-01  
 7.352605e-01  
 7.516480e-01  
 5.945165e-01  
 7.605102e-01  
 7.618558e-01  
 7.556989e-01  
 7.420575e-01  
 7.209523e-01  
 6.924050e-01  
 6.564376e-01  
 5.405671e-01  
 6.130708e-01  
 5.623221e-01  
 5.042030e-01  
 4.387159e-01  
 3.658506e-01  
 4.790804e-01  
 2.855826e-01  
 1.978754e-01  
 1.026893e-01  
 0.000000e+00  
 4.099708e-01  
 3.330912e-01  
 2.482400e-01  
 1.551951e-01  
 5.380512e-02  
 7.143180e-01  
 6.782423e-01  
 7.426833e-01  
 7.633322e-01  
 6.344635e-01  
 7.762646e-01  
 7.814868e-01  
 7.790109e-01  
 5.829820e-01  
 7.688536e-01  
 7.510344e-01  
 7.255748e-01  
 6.924967e-01  
 6.518212e-01  
 6.035670e-01  
 5.477482e-01  
 4.843713e-01  
 5.237761e-01  
 4.134328e-01  
 3.349165e-01  
 2.487943e-01  
 1.550311e-01  
 4.567855e-01  
 5.359680e-02  
 3.818986e-01  
 2.989519e-01  
 2.077482e-01  
 1.081091e-01  
 0.000000e+00  
 7.138371e-01  
 7.468121e-01  
 7.718883e-01  
 6.729671e-01  
 7.890647e-01  
 7.983458e-01  
 6.242028e-01  
 7.997419e-01  
 7.932679e-01  
 7.789423e-01  
 7.567860e-01  
 7.268207e-01  
 6.890677e-01  
 6.435468e-01  
 5.902739e-01  
 5.675306e-01  
 5.292590e-01  
 4.605038e-01  
 3.839991e-01  
 2.997246e-01  
 5.029083e-01  
 2.076512e-01  
 1.077487e-01  
 0.000000e+00  
 4.302525e-01  
 3.494332e-01  
 2.602822e-01  
 1.626238e-01  
 5.634946e-02  
 7.475478e-01  
 7.772065e-01  
 7.098134e-01  
 7.987893e-01  
 8.122999e-01  
 6.640027e-01  
 8.177467e-01  
 8.151433e-01  
 8.045069e-01  
 7.858576e-01  
 7.592167e-01  
 6.101064e-01  
 7.246057e-01  
 6.820451e-01  
 6.315524e-01  
 5.731402e-01  
 5.068145e-01  
 4.325720e-01  
 5.480948e-01  
 3.503990e-01  
 2.602730e-01  
 1.621667e-01  
 5.605763e-02  
 4.779062e-01  
 3.994389e-01  
 3.125533e-01  
 2.170890e-01  
 1.129099e-01  
 0.000000e+00  
 7.791888e-01  
 7.448026e-01  
 8.053294e-01  
 8.232283e-01  
 7.021683e-01  
 8.328930e-01  
 8.343355e-01  
 8.275719e-01  
 6.512782e-01  
 8.126212e-01  
 7.895045e-01  
 7.582432e-01  
 7.188583e-01  
 6.713683e-01  
 6.157883e-01  
 5.521276e-01  
 5.921109e-01  
 4.803875e-01  
 4.005607e-01  
 3.126305e-01  
 5.246206e-01  
 2.165740e-01  
 1.123680e-01  
 0.000000e+00  
 4.487287e-01  
 3.643215e-01  
 2.712591e-01  
 1.694023e-01  
 5.867383e-02  
 7.777476e-01  
 8.085868e-01  
 8.310217e-01  
 7.384987e-01  
 8.450595e-01  
 8.507114e-01  
 6.908326e-01  
 8.479922e-01  
 8.369201e-01  
 8.175155e-01  
 7.897997e-01  
 7.537939e-01  
 7.095177e-01  
 6.347328e-01  
 6.569879e-01  
 5.962165e-01  
 5.272089e-01  
 4.499629e-01  
 5.701648e-01  
 3.644674e-01  
 2.707044e-01  
 1.686527e-01  
 5.829513e-02  
 4.970680e-01  
 4.153513e-01  
 3.248959e-01  
 2.255716e-01  
 1.172745e-01  
 0.000000e+00  
 8.084749e-01  
 8.355823e-01  
 7.728067e-01  
 8.541372e-01  
 8.641502e-01  
 7.285693e-01  
 8.656352e-01  
 8.586096e-01  
 8.430930e-01  
 8.191066e-01  
 6.757485e-01  
 7.866717e-01  
 7.458086e-01  
 6.965355e-01  
 6.388666e-01  
 5.728108e-01  
 6.143178e-01  
 4.983699e-01  
 4.155382e-01  
 3.243026e-01  
 2.246450e-01  
 5.442302e-01  
 1.165475e-01  
 0.000000e+00  
 4.654130e-01  
 3.777675e-01  
 2.811774e-01  
 1.755325e-01  
 6.077788e-02  
 8.368237e-01  
 8.049179e-01  
 8.600283e-01  
 7.643004e-01  
 8.745424e-01  
 8.803797e-01  
 8.775566e-01  
 7.149582e-01  
 8.660922e-01  
 8.460073e-01  
 8.173232e-01  
 7.800608e-01  
 7.342392e-01  
 6.798747e-01  
 6.568694e-01  
 6.169787e-01  
 5.455570e-01  
 4.656082e-01  
 3.771239e-01  
 5.899972e-01  
 2.800899e-01  
 1.744895e-01  
 6.030918e-02  
 5.142836e-01  
 4.296476e-01  
 3.359882e-01  
 2.331998e-01  
 1.212029e-01  
 0.000000e+00  
 8.346709e-01  
 8.626466e-01  
 7.978513e-01  
 8.817906e-01  
 8.921164e-01  
 8.936401e-01  
 7.521742e-01  
 8.863802e-01  
 8.703569e-01  
 8.455917e-01  
 8.121057e-01  
 6.976208e-01  
 7.699191e-01  
 7.190493e-01  
 6.595102e-01  
 5.913107e-01  
 5.144534e-01  
 6.341610e-01  
 4.289342e-01  
 3.347429e-01  
 2.318653e-01  
 1.202872e-01  
 5.617485e-01  
 0.000000e+00  
 4.803168e-01  
 3.897803e-01  
 2.900424e-01  
 1.810157e-01  
 6.266128e-02  
 8.619176e-01  
 8.290601e-01  
 8.858088e-01  
 9.007479e-01  
 7.872218e-01  
 9.067509e-01  
 9.038358e-01  
 8.920226e-01  
 8.713325e-01  
 7.363850e-01  
 8.417869e-01  
 8.034066e-01  
 7.562104e-01  
 7.002140e-01  
 6.354289e-01  
 6.765245e-01  
 5.618611e-01  
 4.795104e-01  
 3.883706e-01  
 6.076022e-01  
 2.884307e-01  
 1.796774e-01  
 6.209968e-02  
 5.295637e-01  
 4.423370e-01  
 3.458365e-01  
 2.399761e-01  
 1.246952e-01  
 0.000000e+00  
 8.865227e-01  
 8.577782e-01  
 9.061883e-01  
 8.199390e-01  
 9.167914e-01  
 9.183497e-01  
 9.108832e-01  
 7.729877e-01  
 8.944126e-01  
 8.689597e-01  
 8.345456e-01  
 7.911901e-01  
 7.169018e-01  
 7.389107e-01  
 6.777208e-01  
 6.076296e-01  
 5.286404e-01  
 6.516495e-01  
 4.407506e-01  
 3.439527e-01  
 2.382353e-01  
 1.235870e-01  
 0.000000e+00  
 5.771855e-01  
 4.934494e-01  
 4.003671e-01  
 2.978579e-01  
 1.858527e-01  
 6.432375e-02  
 8.838696e-01  
 9.083636e-01  
 8.501766e-01  
 9.236760e-01  
 9.298247e-01  
 8.072669e-01  
 9.268294e-01  
 9.147110e-01  
 8.934910e-01  
 8.631912e-01  
 7.551192e-01  
 8.238320e-01  
 7.754322e-01  
 7.180073e-01  
 6.515688e-01  
 6.937058e-01  
 5.761232e-01  
 4.916714e-01  
 3.982091e-01  
 2.957277e-01  
 6.229888e-01  
 1.842167e-01  
 6.366654e-02  
 5.429172e-01  
 4.534271e-01  
 3.544457e-01  
 2.459026e-01  
 1.277512e-01  
 0.000000e+00  
 9.072115e-01  
 8.777985e-01  
 9.273308e-01  
 9.381750e-01  
 8.390731e-01  
 9.397639e-01  
 9.321184e-01  
 9.152600e-01  
 7.910148e-01  
 8.892106e-01  
 8.539916e-01  
 8.096227e-01  
 7.561209e-01  
 7.335984e-01  
 6.935000e-01  
 6.217691e-01  
 5.409325e-01  
 4.509890e-01  
 6.667910e-01  
 3.519330e-01  
 2.437555e-01  
 1.264469e-01  
 0.000000e+00  
 5.905492e-01  
 5.048182e-01  
 4.095333e-01  
 3.046271e-01  
 1.900441e-01  
 6.576505e-02  
 9.026812e-01  
 9.276936e-01  
 9.433269e-01  
 8.682701e-01  
 9.496013e-01  
 9.465375e-01  
 8.244396e-01  
 9.341574e-01  
 9.124830e-01  
 8.815363e-01  
 8.413376e-01  
 7.711661e-01  
 7.919057e-01  
 7.332560e-01  
 6.654001e-01  
 5.883449e-01  
 7.084202e-01  
 5.020926e-01  
 4.066404e-01  
 3.019815e-01  
 6.361644e-01  
 1.881074e-01  
 6.500968e-02  
 5.543513e-01  
 4.629237e-01  
 3.618195e-01  
 2.509806e-01  
 1.303710e-01  
 0.000000e+00  
 9.247143e-01  
 9.452185e-01  
 8.947341e-01  
 9.562677e-01  
 8.552570e-01  
 9.578828e-01  
 9.500859e-01  
 9.328992e-01  
 8.062600e-01  
 9.063450e-01  
 8.704446e-01  
 8.252176e-01  
 7.706812e-01  
 7.068492e-01  
 7.477162e-01  
 6.337309e-01  
 5.513313e-01  
 4.596506e-01  
 6.795923e-01  
 3.586845e-01  
 2.484261e-01  
 1.288670e-01  
 0.000000e+00  
 6.018467e-01  
 5.144293e-01  
 4.172833e-01  
 3.103520e-01  
 1.935904e-01  
 6.698496e-02  
 9.437997e-01  
 9.183542e-01  
 9.597013e-01  
 8.833432e-01  
 9.660808e-01  
 9.629602e-01  
 8.387439e-01  
 9.503620e-01  
 9.283089e-01  
 8.968227e-01  
 8.559242e-01  
 7.845307e-01  
 8.056319e-01  
 7.459612e-01  
 6.769240e-01  
 5.985278e-01  
 7.206735e-01  
 5.107754e-01  
 4.136654e-01  
 3.071925e-01  
 1.913497e-01  
 6.471353e-01  
 6.612904e-02  
 5.638717e-01  
 4.708316e-01  
 3.679609e-01  
 2.552112e-01  
 1.325544e-01  
 0.000000e+00  
 9.390323e-01  
 9.598524e-01  
 9.085871e-01  
 9.710697e-01  
 9.727067e-01  
 8.684937e-01  
 9.647860e-01  
 9.473307e-01  
 9.203632e-01  
 8.187276e-01  
 8.839050e-01  
 8.379758e-01  
 7.825927e-01  
 7.177695e-01  
 7.592604e-01  
 6.435162e-01  
 5.598380e-01  
 4.667363e-01  
 6.900589e-01  
 3.642079e-01  
 2.522473e-01  
 1.308471e-01  
 0.000000e+00  
 6.110832e-01  
 5.222872e-01  
 4.236205e-01  
 3.150342e-01  