# vtk DataFile Version 1.0 
PolyMesh 
ASCII 
 
DATASET POLYDATA 
 
POINTS 1089 float 
0.000000e+00 0.000000e+00 0.000000e+00  
 3.125000e-02 0.000000e+00 0.000000e+00  
 6.250000e-02 0.000000e+00 0.000000e+00  
 9.375000e-02 0.000000e+00 0.000000e+00  
 1.250000e-01 0.000000e+00 0.000000e+00  
 1.562500e-01 0.000000e+00 0.000000e+00  
 1.875000e-01 0.000000e+00 0.000000e+00  
 2.187500e-01 0.000000e+00 0.000000e+00  
 2.500000e-01 0.000000e+00 0.000000e+00  
 2.812500e-01 0.000000e+00 0.000000e+00  
 3.125000e-01 0.000000e+00 0.000000e+00  
 3.437500e-01 0.000000e+00 0.000000e+00  
 3.750000e-01 0.000000e+00 0.000000e+00  
 4.062500e-01 0.000000e+00 0.000000e+00  
 4.375000e-01 0.000000e+00 0.000000e+00  
 4.687500e-01 0.000000e+00 0.000000e+00  
 5.000000e-01 0.000000e+00 0.000000e+00  
 5.312500e-01 0.000000e+00 0.000000e+00  
 5.625000e-01 0.000000e+00 0.000000e+00  
 5.937500e-01 0.000000e+00 0.000000e+00  
 6.250000e-01 0.000000e+00 0.000000e+00  
 6.562500e-01 0.000000e+00 0.000000e+00  
 6.875000e-01 0.000000e+00 0.000000e+00  
 7.187500e-01 0.000000e+00 0.000000e+00  
 7.500000e-01 0.000000e+00 0.000000e+00  
 7.812500e-01 0.000000e+00 0.000000e+00  
 8.125000e-01 0.000000e+00 0.000000e+00  
 8.437500e-01 0.000000e+00 0.000000e+00  
 8.750000e-01 0.000000e+00 0.000000e+00  
 9.062500e-01 0.000000e+00 0.000000e+00  
 9.375000e-01 0.000000e+00 0.000000e+00  
 9.687500e-01 0.000000e+00 0.000000e+00  
 1.000000e+00 0.000000e+00 0.000000e+00  
 0.000000e+00 3.125000e-02 0.000000e+00  
 3.125000e-02 3.125000e-02 0.000000e+00  
 6.250000e-02 3.125000e-02 0.000000e+00  
 9.375000e-02 3.125000e-02 0.000000e+00  
 1.250000e-01 3.125000e-02 0.000000e+00  
 1.562500e-01 3.125000e-02 0.000000e+00  
 1.875000e-01 3.125000e-02 0.000000e+00  
 2.187500e-01 3.125000e-02 0.000000e+00  
 2.500000e-01 3.125000e-02 0.000000e+00  
 2.812500e-01 3.125000e-02 0.000000e+00  
 3.125000e-01 3.125000e-02 0.000000e+00  
 3.437500e-01 3.125000e-02 0.000000e+00  
 3.750000e-01 3.125000e-02 0.000000e+00  
 4.062500e-01 3.125000e-02 0.000000e+00  
 4.375000e-01 3.125000e-02 0.000000e+00  
 4.687500e-01 3.125000e-02 0.000000e+00  
 5.000000e-01 3.125000e-02 0.000000e+00  
 5.312500e-01 3.125000e-02 0.000000e+00  
 5.625000e-01 3.125000e-02 0.000000e+00  
 5.937500e-01 3.125000e-02 0.000000e+00  
 6.250000e-01 3.125000e-02 0.000000e+00  
 6.562500e-01 3.125000e-02 0.000000e+00  
 6.875000e-01 3.125000e-02 0.000000e+00  
 7.187500e-01 3.125000e-02 0.000000e+00  
 7.500000e-01 3.125000e-02 0.000000e+00  
 7.812500e-01 3.125000e-02 0.000000e+00  
 8.125000e-01 3.125000e-02 0.000000e+00  
 8.437500e-01 3.125000e-02 0.000000e+00  
 8.750000e-01 3.125000e-02 0.000000e+00  
 9.062500e-01 3.125000e-02 0.000000e+00  
 9.375000e-01 3.125000e-02 0.000000e+00  
 9.687500e-01 3.125000e-02 0.000000e+00  
 1.000000e+00 3.125000e-02 0.000000e+00  
 0.000000e+00 6.250000e-02 0.000000e+00  
 3.125000e-02 6.250000e-02 0.000000e+00  
 6.250000e-02 6.250000e-02 0.000000e+00  
 9.375000e-02 6.250000e-02 0.000000e+00  
 1.250000e-01 6.250000e-02 0.000000e+00  
 1.562500e-01 6.250000e-02 0.000000e+00  
 1.875000e-01 6.250000e-02 0.000000e+00  
 2.187500e-01 6.250000e-02 0.000000e+00  
 2.500000e-01 6.250000e-02 0.000000e+00  
 2.812500e-01 6.250000e-02 0.000000e+00  
 3.125000e-01 6.250000e-02 0.000000e+00  
 3.437500e-01 6.250000e-02 0.000000e+00  
 3.750000e-01 6.250000e-02 0.000000e+00  
 4.062500e-01 6.250000e-02 0.000000e+00  
 4.375000e-01 6.250000e-02 0.000000e+00  
 4.687500e-01 6.250000e-02 0.000000e+00  
 5.000000e-01 6.250000e-02 0.000000e+00  
 5.312500e-01 6.250000e-02 0.000000e+00  
 5.625000e-01 6.250000e-02 0.000000e+00  
 5.937500e-01 6.250000e-02 0.000000e+00  
 6.250000e-01 6.250000e-02 0.000000e+00  
 6.562500e-01 6.250000e-02 0.000000e+00  
 6.875000e-01 6.250000e-02 0.000000e+00  
 7.187500e-01 6.250000e-02 0.000000e+00  
 7.500000e-01 6.250000e-02 0.000000e+00  
 7.812500e-01 6.250000e-02 0.000000e+00  
 8.125000e-01 6.250000e-02 0.000000e+00  
 8.437500e-01 6.250000e-02 0.000000e+00  
 8.750000e-01 6.250000e-02 0.000000e+00  
 9.062500e-01 6.250000e-02 0.000000e+00  
 9.375000e-01 6.250000e-02 0.000000e+00  
 9.687500e-01 6.250000e-02 0.000000e+00  
 1.000000e+00 6.250000e-02 0.000000e+00  
 0.000000e+00 9.375000e-02 0.000000e+00  
 3.125000e-02 9.375000e-02 0.000000e+00  
 6.250000e-02 9.375000e-02 0.000000e+00  
 9.375000e-02 9.375000e-02 0.000000e+00  
 1.250000e-01 9.375000e-02 0.000000e+00  
 1.562500e-01 9.375000e-02 0.000000e+00  
 1.875000e-01 9.375000e-02 0.000000e+00  
 2.187500e-01 9.375000e-02 0.000000e+00  
 2.500000e-01 9.375000e-02 0.000000e+00  
 2.812500e-01 9.375000e-02 0.000000e+00  
 3.125000e-01 9.375000e-02 0.000000e+00  
 3.437500e-01 9.375000e-02 0.000000e+00  
 3.750000e-01 9.375000e-02 0.000000e+00  
 4.062500e-01 9.375000e-02 0.000000e+00  
 4.375000e-01 9.375000e-02 0.000000e+00  
 4.687500e-01 9.375000e-02 0.000000e+00  
 5.000000e-01 9.375000e-02 0.000000e+00  
 5.312500e-01 9.375000e-02 0.000000e+00  
 5.625000e-01 9.375000e-02 0.000000e+00  
 5.937500e-01 9.375000e-02 0.000000e+00  
 6.250000e-01 9.375000e-02 0.000000e+00  
 6.562500e-01 9.375000e-02 0.000000e+00  
 6.875000e-01 9.375000e-02 0.000000e+00  
 7.187500e-01 9.375000e-02 0.000000e+00  
 7.500000e-01 9.375000e-02 0.000000e+00  
 7.812500e-01 9.375000e-02 0.000000e+00  
 8.125000e-01 9.375000e-02 0.000000e+00  
 8.437500e-01 9.375000e-02 0.000000e+00  
 8.750000e-01 9.375000e-02 0.000000e+00  
 9.062500e-01 9.375000e-02 0.000000e+00  
 9.375000e-01 9.375000e-02 0.000000e+00  
 9.687500e-01 9.375000e-02 0.000000e+00  
 1.000000e+00 9.375000e-02 0.000000e+00  
 0.000000e+00 1.250000e-01 0.000000e+00  
 3.125000e-02 1.250000e-01 0.000000e+00  
 6.250000e-02 1.250000e-01 0.000000e+00  
 9.375000e-02 1.250000e-01 0.000000e+00  
 1.250000e-01 1.250000e-01 0.000000e+00  
 1.562500e-01 1.250000e-01 0.000000e+00  
 1.875000e-01 1.250000e-01 0.000000e+00  
 2.187500e-01 1.250000e-01 0.000000e+00  
 2.500000e-01 1.250000e-01 0.000000e+00  
 2.812500e-01 1.250000e-01 0.000000e+00  
 3.125000e-01 1.250000e-01 0.000000e+00  
 3.437500e-01 1.250000e-01 0.000000e+00  
 3.750000e-01 1.250000e-01 0.000000e+00  
 4.062500e-01 1.250000e-01 0.000000e+00  
 4.375000e-01 1.250000e-01 0.000000e+00  
 4.687500e-01 1.250000e-01 0.000000e+00  
 5.000000e-01 1.250000e-01 0.000000e+00  
 5.312500e-01 1.250000e-01 0.000000e+00  
 5.625000e-01 1.250000e-01 0.000000e+00  
 5.937500e-01 1.250000e-01 0.000000e+00  
 6.250000e-01 1.250000e-01 0.000000e+00  
 6.562500e-01 1.250000e-01 0.000000e+00  
 6.875000e-01 1.250000e-01 0.000000e+00  
 7.187500e-01 1.250000e-01 0.000000e+00  
 7.500000e-01 1.250000e-01 0.000000e+00  
 7.812500e-01 1.250000e-01 0.000000e+00  
 8.125000e-01 1.250000e-01 0.000000e+00  
 8.437500e-01 1.250000e-01 0.000000e+00  
 8.750000e-01 1.250000e-01 0.000000e+00  
 9.062500e-01 1.250000e-01 0.000000e+00  
 9.375000e-01 1.250000e-01 0.000000e+00  
 9.687500e-01 1.250000e-01 0.000000e+00  
 1.000000e+00 1.250000e-01 0.000000e+00  
 0.000000e+00 1.562500e-01 0.000000e+00  
 3.125000e-02 1.562500e-01 0.000000e+00  
 6.250000e-02 1.562500e-01 0.000000e+00  
 9.375000e-02 1.562500e-01 0.000000e+00  
 1.250000e-01 1.562500e-01 0.000000e+00  
 1.562500e-01 1.562500e-01 0.000000e+00  
 1.875000e-01 1.562500e-01 0.000000e+00  
 2.187500e-01 1.562500e-01 0.000000e+00  
 2.500000e-01 1.562500e-01 0.000000e+00  
 2.812500e-01 1.562500e-01 0.000000e+00  
 3.125000e-01 1.562500e-01 0.000000e+00  
 3.437500e-01 1.562500e-01 0.000000e+00  
 3.750000e-01 1.562500e-01 0.000000e+00  
 4.062500e-01 1.562500e-01 0.000000e+00  
 4.375000e-01 1.562500e-01 0.000000e+00  
 4.687500e-01 1.562500e-01 0.000000e+00  
 5.000000e-01 1.562500e-01 0.000000e+00  
 5.312500e-01 1.562500e-01 0.000000e+00  
 5.625000e-01 1.562500e-01 0.000000e+00  
 5.937500e-01 1.562500e-01 0.000000e+00  
 6.250000e-01 1.562500e-01 0.000000e+00  
 6.562500e-01 1.562500e-01 0.000000e+00  
 6.875000e-01 1.562500e-01 0.000000e+00  
 7.187500e-01 1.562500e-01 0.000000e+00  
 7.500000e-01 1.562500e-01 0.000000e+00  
 7.812500e-01 1.562500e-01 0.000000e+00  
 8.125000e-01 1.562500e-01 0.000000e+00  
 8.437500e-01 1.562500e-01 0.000000e+00  
 8.750000e-01 1.562500e-01 0.000000e+00  
 9.062500e-01 1.562500e-01 0.000000e+00  
 9.375000e-01 1.562500e-01 0.000000e+00  
 9.687500e-01 1.562500e-01 0.000000e+00  
 1.000000e+00 1.562500e-01 0.000000e+00  
 0.000000e+00 1.875000e-01 0.000000e+00  
 3.125000e-02 1.875000e-01 0.000000e+00  
 6.250000e-02 1.875000e-01 0.000000e+00  
 9.375000e-02 1.875000e-01 0.000000e+00  
 1.250000e-01 1.875000e-01 0.000000e+00  
 1.562500e-01 1.875000e-01 0.000000e+00  
 1.875000e-01 1.875000e-01 0.000000e+00  
 2.187500e-01 1.875000e-01 0.000000e+00  
 2.500000e-01 1.875000e-01 0.000000e+00  
 2.812500e-01 1.875000e-01 0.000000e+00  
 3.125000e-01 1.875000e-01 0.000000e+00  
 3.437500e-01 1.875000e-01 0.000000e+00  
 3.750000e-01 1.875000e-01 0.000000e+00  
 4.062500e-01 1.875000e-01 0.000000e+00  
 4.375000e-01 1.875000e-01 0.000000e+00  
 4.687500e-01 1.875000e-01 0.000000e+00  
 5.000000e-01 1.875000e-01 0.000000e+00  
 5.312500e-01 1.875000e-01 0.000000e+00  
 5.625000e-01 1.875000e-01 0.000000e+00  
 5.937500e-01 1.875000e-01 0.000000e+00  
 6.250000e-01 1.875000e-01 0.000000e+00  
 6.562500e-01 1.875000e-01 0.000000e+00  
 6.875000e-01 1.875000e-01 0.000000e+00  
 7.187500e-01 1.875000e-01 0.000000e+00  
 7.500000e-01 1.875000e-01 0.000000e+00  
 7.812500e-01 1.875000e-01 0.000000e+00  
 8.125000e-01 1.875000e-01 0.000000e+00  
 8.437500e-01 1.875000e-01 0.000000e+00  
 8.750000e-01 1.875000e-01 0.000000e+00  
 9.062500e-01 1.875000e-01 0.000000e+00  
 9.375000e-01 1.875000e-01 0.000000e+00  
 9.687500e-01 1.875000e-01 0.000000e+00  
 1.000000e+00 1.875000e-01 0.000000e+00  
 0.000000e+00 2.187500e-01 0.000000e+00  
 3.125000e-02 2.187500e-01 0.000000e+00  
 6.250000e-02 2.187500e-01 0.000000e+00  
 9.375000e-02 2.187500e-01 0.000000e+00  
 1.250000e-01 2.187500e-01 0.000000e+00  
[...]
 POINT_DATA 1089 
 SCALARS Field float 1
 LOOKUP_TABLE default
0.000000e+00  
 0.000000e+00  
 0.000000e+00  
 0.000000e+00  
 0.000000e+00  
 0.000000e+00  
 0.000000e+00  
 0.000000e+00  
 0.000000e+00  
 0.000000e+00  
 0.000000e+00  
 0.000000e+00  
 0.000000e+00  
 0.000000e+00  
 0.000000e+00  
 0.000000e+00  
 0.000000e+00  
 0.000000e+00  
 0.000000e+00  
 0.000000e+00  
 0.000000e+00  
 0.000000e+00  
 0.000000e+00  
 0.000000e+00  
 0.000000e+00  
 0.000000e+00  
 0.000000e+00  
 0.000000e+00  
 0.000000e+00  
 0.000000e+00  
 0.000000e+00  
 0.000000e+00  
 0.000000e+00  
 0.000000e+00  
 4.871056e-04  
 9.695202e-04  
 1.442598e-03  
 1.901782e-03  
 2.342652e-03  
 2.760960e-03  
 3.152679e-03  
 3.514035e-03  
 3.841550e-03  
 4.132069e-03  
 4.382793e-03  
 4.591309e-03  
 4.755607e-03  
 4.874107e-03  
 4.945667e-03  
 4.969597e-03  
 4.945667e-03  
 4.874107e-03  
 4.755607e-03  
 4.591309e-03  
 4.382793e-03  
 4.132069e-03  
 3.841550e-03  
 3.514035e-03  
 3.152679e-03  
 2.760960e-03  
 2.342652e-03  
 1.901782e-03  
 1.442598e-03  
 9.695202e-04  
 4.871056e-04  
 0.000000e+00  
 0.000000e+00  
 9.695202e-04  
 1.929703e-03  
 2.871302e-03  
 3.785249e-03  
 4.662742e-03  
 5.495330e-03  
 6.274995e-03  
 6.994229e-03  
 7.646104e-03  
 8.224343e-03  
 8.723377e-03  
 9.138400e-03  
 9.465416e-03  
 9.701274e-03  
 9.843704e-03  
 9.891333e-03  
 9.843704e-03  
 9.701274e-03  
 9.465416e-03  
 9.138400e-03  
 8.723377e-03  
 8.224343e-03  
 7.646104e-03  
 6.994229e-03  
 6.274995e-03  
 5.495330e-03  
 4.662742e-03  
 3.785249e-03  
 2.871302e-03  
 1.929703e-03  
 9.695202e-04  
 0.000000e+00  
 0.000000e+00  
 1.442598e-03  
 2.871302e-03  
 4.272355e-03  
 5.632262e-03  
 6.937928e-03  
 8.176778e-03  
 9.336880e-03  
 1.040706e-02  
 1.137702e-02  
 1.223741e-02  
 1.297995e-02  
 1.359748e-02  
 1.408407e-02  
 1.443501e-02  
 1.464694e-02  
 1.471781e-02  
 1.464694e-02  
 1.443501e-02  
 1.408407e-02  
 1.359748e-02  
 1.297995e-02  
 1.223741e-02  
 1.137702e-02  
 1.040706e-02  
 9.336880e-03  
 8.176778e-03  
 6.937928e-03  
 5.632262e-03  
 4.272355e-03  
 2.871302e-03  
 1.442598e-03  
 0.000000e+00  
 0.000000e+00  
 1.901782e-03  
 3.785249e-03  
 5.632262e-03  
 7.425034e-03  
 9.146298e-03  
 1.077948e-02  
 1.230885e-02  
 1.371967e-02  
 1.499837e-02  
 1.613263e-02  
 1.711152e-02  
 1.792562e-02  
 1.856708e-02  
 1.902973e-02  
 1.930912e-02  
 1.940255e-02  
 1.930912e-02  
 1.902973e-02  
 1.856708e-02  
 1.792562e-02  
 1.711152e-02  
 1.613263e-02  
 1.499837e-02  
 1.371967e-02  
 1.230885e-02  
 1.077948e-02  
 9.146298e-03  
 7.425034e-03  
 5.632262e-03  
 3.785249e-03  
 1.901782e-03  
 0.000000e+00  
 0.000000e+00  
 2.342652e-03  
 4.662742e-03  
 6.937928e-03  
 9.146298e-03  
 1.126658e-02  
 1.327837e-02  
 1.516227e-02  
 1.690015e-02  
 1.847528e-02  
 1.987248e-02  
 2.107830e-02  
 2.208112e-02  
 2.287128e-02  
 2.344119e-02  
 2.378534e-02  
 2.390043e-02  
 2.378534e-02  
 2.344119e-02  
 2.287128e-02  
 2.208112e-02  
 2.107830e-02  
 1.987248e-02  
 1.847528e-02  
 1.690015e-02  
 1.516227e-02  
 1.327837e-02  
 1.126658e-02  
 9.146298e-03  
 6.937928e-03  
 4.662742e-03  
 2.342652e-03  
 0.000000e+00  
 0.000000e+00  
 2.760960e-03  
 5.495330e-03  
 8.176778e-03  
 1.077948e-02  
 1.327837e-02  
 1.564938e-02  
 1.786967e-02  
 1.991788e-02  
 2.177426e-02  
 2.342095e-02  
 2.484208e-02  
 2.602396e-02  
 2.695522e-02  
 2.762689e-02  
 2.803250e-02  
 2.816813e-02  
 2.803250e-02  
 2.762689e-02  
 2.695522e-02  
 2.602396e-02  
 2.484208e-02  
 2.342095e-02  
 2.177426e-02  
 1.991788e-02  
 1.786967e-02  
 1.564938e-02  
 1.327837e-02  
 1.077948e-02  
 8.176778e-03  
 5.495330e-03  
 2.760960e-03  
 0.000000e+00  
 0.000000e+00  
 3.152679e-03  
 6.274995e-03  
 9.336880e-03  
 1.230885e-02  
 1.516227e-02  
 1.786967e-02  
 2.040498e-02  
 2.274378e-02  
 2.486355e-02  
 2.674386e-02  
 2.836661e-02  
 2.971618e-02  
 3.077957e-02  
 3.154653e-02  
 3.200968e-02  
 3.216457e-02  
 3.200968e-02  
 3.154653e-02  
 3.077957e-02  
 2.971618e-02  
 2.836661e-02  
 2.674386e-02  
 2.486355e-02  
 2.274378e-02  
 2.040498e-02  
 1.786967e-02  
 1.516227e-02  
 1.230885e-02  
 9.336880e-03  
 6.274995e-03  
 3.152679e-03  
 0.000000e+00  
 0.000000e+00  
 3.514035e-03  
 6.994229e-03  
 1.040706e-02  
 1.371967e-02  
 1.690015e-02  
 1.991788e-02  
 2.274378e-02  
 2.535065e-02  
 2.771338e-02  
 2.980921e-02  
 3.161797e-02  
 3.312222e-02  
 3.430749e-02  
 3.516236e-02  
 3.567860e-02  
 3.585123e-02  
 3.567860e-02  
 3.516236e-02  
 3.430749e-02  
 3.312222e-02  
 3.161797e-02  
 2.980921e-02  
 2.771338e-02  
 2.535065e-02  
 2.274378e-02  
 1.991788e-02  
 1.690015e-02  
 1.371967e-02  
 1.040706e-02  
 6.994229e-03  
 3.514035e-03  
 0.000000e+00  
 0.000000e+00  
 3.841550e-03  
 7.646104e-03  
 1.137702e-02  
 1.499837e-02  
 1.847528e-02  
 2.177426e-02  
 2.486355e-02  
 2.771338e-02  
 3.029632e-02  
 3.258749e-02  
 3.456482e-02  
 3.620927e-02  
 3.750501e-02  
 3.843956e-02  
 3.900391e-02  
 3.919264e-02  
 3.900391e-02  
 3.843956e-02  
 3.750501e-02  
 3.620927e-02  
 3.456482e-02  
 3.258749e-02  
 3.029632e-02  
 2.771338e-02  
 2.486355e-02  
 2.177426e-02  
 1.847528e-02  
 1.499837e-02  
 1.137702e-02  
 7.646104e-03  
 3.841550e-03  
 0.000000e+00  
 0.000000e+00  
 4.132069e-03  
 8.224343e-03  
 1.223741e-02  
 1.613263e-02  
 1.987248e-02  
 2.342095e-02  
 2.674386e-02  
 2.980921e-02  
 3.258749e-02  
 3.505192e-02  
 3.717879e-02  
 3.894761e-02  
 4.034134e-02  
 4.134656e-02  
 4.195360e-02  
 4.215659e-02  
 4.195360e-02  
 4.134656e-02  
 4.034134e-02  
 3.894761e-02  
 3.717879e-02  
 3.505192e-02  
 3.258749e-02  
 2.980921e-02  
 2.674386e-02  
 2.342095e-02  
 1.987248e-02  
 1.613263e-02  
 1.223741e-02  
 8.224343e-03  
 4.132069e-03  
 0.000000e+00  
 0.000000e+00  
 4.382793e-03  
 8.723377e-03  
 1.297995e-02  
 1.711152e-02  
 2.107830e-02  
 2.484208e-02  
 2.836661e-02  
 3.161797e-02  
 3.456482e-02  
 3.717879e-02  
 3.943472e-02  
 4.131086e-02  
 4.278916e-02  
 4.385538e-02  
 4.449924e-02  
 4.471456e-02  
 4.449924e-02  
 4.385538e-02  
 4.278916e-02  
 4.131086e-02  
 3.943472e-02  
 3.717879e-02  
 3.456482e-02  
 3.161797e-02  
 2.836661e-02  
 2.484208e-02  
 2.107830e-02  
 1.711152e-02  
 1.297995e-02  
 8.723377e-03  
 4.382793e-03  
 0.000000e+00  
 0.000000e+00  
 4.591309e-03  
 9.138400e-03  
 1.359748e-02  
 1.792562e-02  
 2.208112e-02  
 2.602396e-02  
 2.971618e-02  
 3.312222e-02  
 3.620927e-02  
 3.894761e-02  
 4.131086e-02  
 4.327627e-02  
 4.482490e-02  
 4.594184e-02  
 4.661634e-02  
 4.684189e-02  
 4.661634e-02  
 4.594184e-02  
 4.482490e-02  
 4.327627e-02  
 4.131086e-02  
 3.894761e-02  
 3.620927e-02  
 3.312222e-02  
 2.971618e-02  
 2.602396e-02  
 2.208112e-02  
 1.792562e-02  
 1.359748e-02  
 9.138400e-03  
 4.591309e-03  
 0.000000e+00  
 0.000000e+00  
 4.755607e-03  
 9.465416e-03  
 1.408407e-02  
 1.856708e-02  
 2.287128e-02  
 2.695522e-02  
 3.077957e-02  
 3.430749e-02  
 3.750501e-02  
 4.034134e-02  
 4.278916e-02  
 4.482490e-02  
 4.642895e-02  
 4.758586e-02  
 4.828449e-02  
 4.851812e-02  
 4.828449e-02  
 4.758586e-02  
 4.642895e-02  
 4.482490e-02  
 4.278916e-02  
 4.034134e-02  
 3.750501e-02  
 3.430749e-02  
 3.077957e-02  
 2.695522e-02  
 2.287128e-02  
 1.856708e-02  
 1.408407e-02  
 9.465416e-03  
 4.755607e-03  
 0.000000e+00  
 0.000000e+00  
 4.874107e-03  
 9.701274e-03  
 1.443501e-02  
 1.902973e-02  
 2.344119e-02  
 2.762689e-02  
 3.154653e-02  
 3.516236e-02  
 3.843956e-02  
 4.134656e-02  
 4.385538e-02  
 4.594184e-02  
 4.758586e-02  
 4.877160e-02  
 4.948764e-02  
 4.972709e-02  
 4.948764e-02  
 4.877160e-02  
 4.758586e-02  
 4.594184e-02  
 4.385538e-02  
 4.134656e-02  
 3.843956e-02  
 3.516236e-02  
 3.154653e-02  
 2.762689e-02  
 2.344119e-02  
 1.902973e-02  
 1.443501e-02  
 9.701274e-03  
 4.874107e-03  
 0.000000e+00  
 0.000000e+00  
 4.945667e-03  
 9.843704e-03  
 1.464694e-02  
 1.930912e-02  
 2.378534e-02  
 2.803250e-02  
 3.200968e-02  
 3.567860e-02  
 3.900391e-02  
 4.195360e-02  
 4.449924e-02  
 4.661634e-02  
 4.828449e-02  
 4.948764e-02  
 5.021420e-02  
 5.045716e-02  
 5.021420e-02  
 4.948764e-02  
 4.828449e-02  
 4.661634e-02  
 4.449924e-02  
 4.195360e-02  
 3.900391e-02  
 3.567860e-02  
 3.200968e-02  
 2.803250e-02  
 2.378534e-02  
 1.930912e-02  
 1.464694e-02  
 9.843704e-03  
 4.945667e-03  
 0.000000e+00  
 0.000000e+00  
 4.969597e-03  
 9.891333e-03  
 1.471781e-02  
 1.940255e-02  
 2.390043e-02  
 2.816813e-02  
 3.216457e-02  
 3.585123e-02  
 3.919264e-02  
 4.215659e-02  
 4.471456e-02  
 4.684189e-02  
 4.851812e-02  
 4.972709e-02  
 5.045716e-02  
 5.070130e-02  
 5.045716e-02  
 4.972709e-02  
 4.851812e-02  
 4.684189e-02  
 4.471456e-02  
 4.215659e-02  
 3.919264e-02  
 3.585123e-02  
 3.216457e-02  
 2.816813e-02  
 2.390043e-02  
 1.940255e-02  
 1.471781e-02  
 9.891333e-03  
 4.969597e-03  
 0.000000e+00  
 0.000000e+00  
 4.945667e-03  
 9.843704e-03  
 1.464694e-02  
 1.930912e-02  
 2.378534e-02  
 2.803250e-02  
 3.200968e-02  
 3.567860e-02  
 3.900391e-02  
 4.195360e-02  
 4.449924e-02  
 4.661634e-02  
 4.828449e-02  
 4.948764e-02  
 5.021420e-02  
 5.045716e-02  
 5.021420e-02  
 4.948764e-02  
 4.828449e-02  
 4.661634e-02  
 4.449924e-02  
 4.195360e-02  
 3.900391e-02  
 3.567860e-02  
 3.200968e-02  
 2.803250e-02  
 2.378534e-02  
 1.930912e-02  
 1.464694e-02  
 9.843704e-03  
 4.945667e-03  
 0.000000e+00  
 0.000000e+00  
 4.874107e-03  
 9.701274e-03  
 1.443501e-02  
 1.902973e-02  
 2.344119e-02  
 2.762689e-02  
 3.154653e-02  
 3.516236e-02  
 3.843956e-02  
 4.134656e-02  
 4.385538e-02  
 4.594184e-02  
 4.758586e-02  
 4.877160e-02  
 4.948764e-02  
 4.972709e-02  
 4.948764e-02  
 4.877160e-02  
 4.758586e-02  
 4.594184e-02  
 4.385538e-02  
 4.134656e-02  
 3.843956e-02  
 3.516236e-02  
 3.154653e-02  
 2.762689e-02  
 2.344119e-02  
 1.902973e-02  
 1.443501e-02  
 9.701274e-03  
 4.874107e-03  
 0.000000e+00  
 0.000000e+00  
 4.755607e-03  
 9.465416e-03  
 1.408407e-02  
 1.856708e-02  
 2.287128e-02  
 2.695522e-02  
 3.077957e-02  
 3.430749e-02  
 3.750501e-02  
 4.034134e-02  
 4.278916e-02  
 4.482490e-02  
 4.642895e-02  
 4.758586e-02  
 4.828449e-02  
 4.851812e-02  
 4.828449e-02  
 4.758586e-02  
 4.642895e-02  
 4.482490e-02  
 4.278916e-02  
 4.034134e-02  
 3.750501e-02  
 3.430749e-02  
 3.077957e-02  
 2.695522e-02  
 2.287128e-02  
 1.856708e-02  
 1.408407e-02  
 9.465416e-03  
 4.755607e-03  
 0.000000e+00  
 0.000000e+00  
 4.591309e-03  
 9.138400e-03  
 1.359748e-02  
 1.792562e-02  
 2.208112e-02  
 2.602396e-02  
 2.971618e-02  
 3.312222e-02  
 3.620927e-02  
 3.894761e-02  
 4.131086e-02  
 4.327627e-02  
 4.482490e-02  
 4.594184e-02  
 4.661634e-02  
 4.684189e-02  
 4.661634e-02  
 4.594184e-02  
 4.482490e-02  
 4.327627e-02  
 4.131086e-02  
 3.894761e-02  
 3.620927e-02  
 3.312222e-02  
 2.971618e-02  
 2.602396e-02  
 2.208112e-02  
 1.792562e-02  
 1.359748e-02  
 9.138400e-03  
 4.591309e-03  
 0.000000e+00  
 0.000000e+00  
 4.382793e-03  
 8.723377e-03  
 1.297995e-02  
 1.711152e-02  
 2.107830e-02  
 2.484208e-02  
 2.836661e-02  
 3.161797e-02  
 3.456482e-02  
 3.717879e-02  
 3.943472e-02  
 4.131086e-02  
 4.278916e-02  
 4.385538e-02  
 4.449924e-02  
 4.471456e-02  
 4.449924e-02  
 4.385538e-02  
 4.278916e-02  
 4.131086e-02  
 3.943472e-02  
 3.717879e-02  
 3.456482e-02  
 3.161797e-02  
 2.836661e-02  
 2.484208e-02  
 2.107830e-02  
 1.711152e-02  
 1.297995e-02  
 8.723377e-03  
 4.382793e-03  
 0.000000e+00  
 0.000000e+00  
 4.132069e-03  
 8.224343e-03  
 1.223741e-02  
 1.613263e-02  
 1.987248e-02  
 2.342095e-02  
 2.674386e-02  
 2.980921e-02  
 3.258749e-02  
 3.505192e-02  
 3.717879e-02  
 3.894761e-02  
 4.034134e-02  
 4.134656e-02  
 4.195360e-02  
 4.215659e-02  
 4.195360e-02  
 4.134656e-02  
 4.034134e-02  
 3.894761e-02  
 3.717879e-02  
 3.505192e-02  
 3.258749e-02  
 2.980921e-02  
 2.674386e-02  
 2.342095e-02  
 1.987248e-02  
 1.613263e-02  
 1.223741e-02  
 8.224343e-03  
 4.132069e-03  
 0.000000e+00  
 0.000000e+00  
 3.841550e-03  
 7.646104e-03  
 1.137702e-02  
 1.499837e-02  
 1.847528e-02  
 2.177426e-02  
 2.486355e-02  
 2.771338e-02  
 3.029632e-02  
 3.258749e-02  
 3.456482e-02  
 3.620927e-02  
 3.750501e-02  
 3.843956e-02  
 3.900391e-02  
 3.919264e-02  
 3.900391e-02  
 3.843956e-02  
 3.750501e-02  
 3.620927e-02  
 3.456482e-02  
 3.258749e-02  
 3.029632e-02  
 2.771338e-02  
 2.486355e-02  
 2.177426e-02  
 1.847528e-02  
 1.499837e-02  
 1.137702e-02  
 7.646104e-03  
 3.841550e-03  
 0.000000e+00  
 0.000000e+00  
 3.514035e-03  
 6.994229e-03  
 1.040706e-02  
 1.371967e-02  
 1.690015e-02  
 1.991788e-02  
 2.274378e-02  
 2.535065e-02  
 2.771338e-02  
 2.980921e-02  
 3.161797e-02  
 3.312222e-02  
 3.430749e-02  
 3.516236e-02  
 3.567860e-02  
 3.585123e-02  
 3.567860e-02  
 3.516236e-02  
 3.430749e-02  
 3.312222e-02  
 3.161797e-02  
 2.980921e-02  
 2.771338e-02  
 2.535065e-02  
 2.274378e-02  
 1.991788e-02  
 1.690015e-02  
 1.371967e-02  
 1.040706e-02  
 6.994229e-03  
 3.514035e-03  
 0.000000e+00  
 0.000000e+00  
 3.152679e-03  
 6.274995e-03  
 9.336880e-03  
 1.230885e-02  
 1.516227e-02  
 1.786967e-02  
 2.040498e-02  
 2.274378e-02  
 2.486355e-02  
 2.674386e-02  
 2.836661e-02  
 2.971618e-02  
 3.077957e-02  
 3.154653e-02  
 3.200968e-02  
 3.216457e-02  
 3.200968e-02  
 3.154653e-02  
 3.077957e-02  
 2.971618e-02  
 2.836661e-02  
 2.674386e-02  
 2.486355e-02  
 2.274378e-02  
 2.040498e-02  
 1.786967e-02  
 1.516227e-02  
 1.230885e-02  
 9.336880e-03  
 6.274995e-03  
 3.152679e-03  
 0.000000e+00  
 0.000000e+00  
 2.760960e-03  
 5.495330e-03  
 8.176778e-03  
 1.077948e-02  
 1.327837e-02  
 1.564938e-02  
 1.786967e-02  
 1.991788e-02  
 2.177426e-02  
 2.342095e-02  
 2.484208e-02  
 2.602396e-02  
 2.695522e-02  
 2.762689e-02  
 2.803250e-02  
 2.816813e-02  
 2.803250e-02  
 2.762689e-02  
 2.695522e-02  
 2.602396e-02  
 2.484208e-02  
 2.342095e-02  
 2.177426e-02  
 1.991788e-02  
 1.786967e-02  
 1.564938e-02  
 1.327837e-02  
 1.077948e-02  
 8.176778e-03  
 5.495330e-03  
 2.760960e-03  
 0.000000e+00  
 0.000000e+00  
 2.342652e-03  
 4.662742e-03  
 6.937928e-03  
 9.146298e-03  
 1.126658e-02  
 1.327837e-02  
 1.516227e-02  
 1.690015e-02  
 1.847528e-02  
 1.987248e-02  
 2.107830e-02  
 2.208112e-02  
 2.287128e-02  
 2.344119e-02  
 2.378534e-02  
 2.390043e-02  
 2.378534e-02  
 2.344119e-02  
 2.287128e-02  
 2.208112e-02  
 2.107830e-02  
 1.987248e-02  
 1.847528e-02  
 1.690015e-02  
 1.516227e-02  
 1.327837e-02  
 1.126658e-02  
 9.146298e-03  
 6.937928e-03  
 4.662742e-03  
 2.342652e-03  
 0.000000e+00  
 0.000000e+00  
 1.901782e-03  
 3.785249e-03  
 5.632262e-03  
 7.425034e-03  
 9.146298e-03  
 1.077948e-02  
 1.230885e-02  
 1.371967e-02  
 1.499837e-02  
 1.613263e-02  
 1.711152e-02  
 1.792562e-02  
 1.856708e-02  
 1.902973e-02  
 1.930912e-02  
 1.940255e-02  
 1.930912e-02  
 1.902973e-02  
 1.856708e-02  
 1.792562e-02  
 1.711152e-02  
 1.613263e-02  
 1.499837e-02  
 1.371967e-02  
 1.230885e-02  
 1.077948e-02  
 9.146298e-03  
 7.425034e-03  
 5.632262e-03  
 3.785249e-03  
 1.901782e-03  
 0.000000e+00  
 0.000000e+00  
 1.442598e-03  
 2.871302e-03  
 4.272355e-03  
 5.632262e-03  
 6.937928e-03  
 8.176778e-03  
 9.336880e-03  
 1.040706e-02  
 1.137702e-02  
 1.223741e-02  
 1.297995e-02  
 1.359748e-02  
 1.408407e-02  
 1.443501e-02  
 1.464694e-02  
 1.471781e-02  
 1.464694e-02  
 1.443501e-02  
 1.408407e-02  
 1.359748e-02  
 1.297995e-02  
 1.223741e-02  
 1.137702e-02  
 1.040706e-02  
 9.336880e-03  
 8.176778e-03  
 6.937928e-03  
 5.632262e-03  
 4.272355e-03  
 2.871302e-03  
 1.442598e-03  
 0.000000e+00  
 0.000000e+00  
 9.695202e-04  
 1.929703e-03  
 2.871302e-03  
 3.785249e-03  
 4.662742e-03  
 5.495330e-03  
 6.274995e-03  
 6.994229e-03  
 7.646104e-03  
 8.224343e-03  
 8.723377e-03  
 9.138400e-03  
 9.465416e-03  
 9.701274e-03  
 9.843704e-03  
 9.891333e-03  
 9.843704e-03  
 9.701274e-03  
 9.465416e-03  
 9.138400e-03  
 8.723377e-03  
 8.224343e-03  
 7.646104e-03  
 6.994229e-03  
 6.274995e-03  
 5.495330e-03  
 4.662742e-03  
 3.785249e-03  
 2.871302e-03  
 1.929703e-03  
 9.695202e-04  
 0.000000e+00  
 0.000000e+00  
 4.871056e-04  
 9.695202e-04  
 1.442598e-03  
 1.901782e-03  
 2.342652e-03  
 2.760960e-03  
 3.152679e-03  
 3.514035e-03  
 3.841550e-03  
 4.132069e-03  
 4.382793e-03  
 4.591309e-03  
 4.755607e-03  
 4.874107e-03  
 4.945667e-03  
 4.969597e-03  
 4.945667e-03  
 4.874107e-03  
 4.755607e-03  
 4.591309e-03  
 4.382793e-03  
 4.132069e-03  
 3.841550e-03  
 3.514035e-03  
 3.152679e-03  
 2.760960e-03  
 2.342652e-03  
 1.901782e-03  
 1.442598e-03  
 9.695202e-04  
 4.871056e-04  
 0.000000e+00  
 0.000000e+00  
 0.000000e+00  
 0.000000e+00  
 0.000000e+00  
 0.000000e+00  
 0.000000e+00  
 0.000000e+00  
 0.000000e+00  
 0.000000e+00  
 0.000000e+00  
 0.000000e+00  
 0.000000e+00  
 0.000000e+00  
 0.000000e+00  
 0.000000e+00  
 0.000000e+00  
 0.000000e+00  
 0.000000e+00  
 0.000000e+00  
 0.000000e+00  
 0.000000e+00  
 0.000000e+00  
 0.000000e+00  
 0.000000e+00  
 0.000000e+00  
 0.000000e+00  
 0.000000e+00  
 0.000000e+00  
 0.000000e+00  
 0.000000e+00  
 0.000000e+00  
 0.000000e+00  
 0.000000e+00  
  
 