# vtk DataFile Version 1.0 
PolyMesh 
ASCII 
 
DATASET POLYDATA 
 
POINTS 101 float 
3.367940e-11 4.354330e-11 0.000000e+00  
 1.190891e-01 4.354330e-11 0.000000e+00  
 3.616730e-11 1.636811e-01 0.000000e+00  
 2.627782e-01 3.823050e-11 0.000000e+00  
 1.322931e-01 1.597219e-01 0.000000e+00  
 2.584881e-01 1.239947e-01 0.000000e+00  
 1.548680e-01 2.573253e-01 0.000000e+00  
 8.727089e-02 3.286901e-01 0.000000e+00  
 3.616740e-11 3.255530e-01 0.000000e+00  
 1.000000e+00 -1.041890e-11 0.000000e+00  
 3.997464e-01 3.905770e-11 0.000000e+00  
 6.814577e-01 3.381980e-11 0.000000e+00  
 8.382039e-01 3.381980e-11 0.000000e+00  
 5.376384e-01 3.716420e-11 0.000000e+00  
 3.060431e-01 1.615066e-01 0.000000e+00  
 3.983106e-01 1.277634e-01 0.000000e+00  
 2.997765e-01 2.584908e-01 0.000000e+00  
 2.469888e-01 2.899094e-01 0.000000e+00  
 2.404196e-01 4.078976e-01 0.000000e+00  
 1.493679e-01 4.258290e-01 0.000000e+00  
 1.123875e-01 4.940860e-01 0.000000e+00  
 3.501230e-11 4.969453e-01 0.000000e+00  
 3.501240e-11 6.589005e-01 0.000000e+00  
 8.394960e-01 1.007747e-01 0.000000e+00  
 8.819004e-01 1.364468e-01 0.000000e+00  
 1.000000e+00 1.155318e-01 0.000000e+00  
 4.573073e-01 1.647111e-01 0.000000e+00  
 5.409376e-01 1.295607e-01 0.000000e+00  
 7.353851e-01 1.491109e-01 0.000000e+00  
 5.937137e-01 1.578884e-01 0.000000e+00  
 6.865086e-01 1.180064e-01 0.000000e+00  
 3.890052e-01 3.042196e-01 0.000000e+00  
 4.537623e-01 2.664750e-01 0.000000e+00  
 2.842541e-01 4.403523e-01 0.000000e+00  
 3.856211e-01 3.985279e-01 0.000000e+00  
 2.883183e-01 5.264012e-01 0.000000e+00  
 2.167212e-01 5.814714e-01 0.000000e+00  
 1.589224e-01 5.725108e-01 0.000000e+00  
 8.895773e-02 6.631269e-01 0.000000e+00  
 1.410279e-01 7.367993e-01 0.000000e+00  
 9.358438e-02 8.326457e-01 0.000000e+00  
 -9.768500e-12 8.396901e-01 0.000000e+00  
 3.754750e-11 1.000000e+00 0.000000e+00  
 7.464508e-01 2.308181e-01 0.000000e+00  
 8.449224e-01 2.713134e-01 0.000000e+00  
 8.756731e-01 2.478888e-01 0.000000e+00  
 1.000000e+00 2.705441e-01 0.000000e+00  
 6.052677e-01 2.741060e-01 0.000000e+00  
 5.438911e-01 3.110288e-01 0.000000e+00  
 6.749027e-01 2.960172e-01 0.000000e+00  
 5.371539e-01 4.096566e-01 0.000000e+00  
 4.464091e-01 4.433474e-01 0.000000e+00  
 4.368778e-01 5.451255e-01 0.000000e+00  
 3.747469e-01 5.715610e-01 0.000000e+00  
 3.555538e-01 6.868228e-01 0.000000e+00  
 2.635450e-01 6.990056e-01 0.000000e+00  
 2.357768e-01 7.351176e-01 0.000000e+00  
 2.675610e-01 8.489302e-01 0.000000e+00  
 1.532292e-01 8.917139e-01 0.000000e+00  
 1.440000e-01 1.000000e+00 0.000000e+00  
 7.062545e-01 3.790000e-01 0.000000e+00  
 8.377209e-01 3.667250e-01 0.000000e+00  
 8.556080e-01 3.895316e-01 0.000000e+00  
 1.000000e+00 3.821911e-01 0.000000e+00  
 5.971234e-01 4.554407e-01 0.000000e+00  
 6.824597e-01 4.331154e-01 0.000000e+00  
 5.072827e-01 5.883548e-01 0.000000e+00  
 5.791308e-01 5.622643e-01 0.000000e+00  
 3.994577e-01 7.233368e-01 0.000000e+00  
 4.960023e-01 6.996904e-01 0.000000e+00  
 3.890066e-01 8.323613e-01 0.000000e+00  
 2.962218e-01 8.649101e-01 0.000000e+00  
 3.069650e-01 1.000000e+00 0.000000e+00  
 7.440449e-01 5.146157e-01 0.000000e+00  
 8.459468e-01 4.901891e-01 0.000000e+00  
 8.778221e-01 5.210389e-01 0.000000e+00  
 1.000000e+00 5.053048e-01 0.000000e+00  
 7.215522e-01 5.845430e-01 0.000000e+00  
 6.524628e-01 6.125628e-01 0.000000e+00  
 6.388764e-01 7.078853e-01 0.000000e+00  
 5.460596e-01 7.382457e-01 0.000000e+00  
 5.402526e-01 8.404333e-01 0.000000e+00  
 4.484567e-01 8.730027e-01 0.000000e+00  
 4.435986e-01 1.000000e+00 0.000000e+00  
 8.146036e-01 6.661638e-01 0.000000e+00  
 8.726857e-01 6.209255e-01 0.000000e+00  
 1.000000e+00 6.608256e-01 0.000000e+00  
 6.975759e-01 7.568091e-01 0.000000e+00  
 8.095249e-01 7.058768e-01 0.000000e+00  
 6.962950e-01 8.431957e-01 0.000000e+00  
 5.914231e-01 8.779104e-01 0.000000e+00  
 5.907743e-01 1.000000e+00 0.000000e+00  
 8.570664e-01 7.672409e-01 0.000000e+00  
 1.000000e+00 7.386752e-01 0.000000e+00  
 7.325940e-01 8.738162e-01 0.000000e+00  
 8.465766e-01 8.529648e-01 0.000000e+00  
 7.310287e-01 1.000000e+00 0.000000e+00  
 8.704689e-01 8.792594e-01 0.000000e+00  
 1.000000e+00 8.739785e-01 0.000000e+00  
 8.636393e-01 1.000000e+00 0.000000e+00  
 1.000000e+00 1.000000e+00 0.000000e+00  
  
 POLYGONS 50 322 
 4 24  25  46  45   
 6 14  15  26  32  31  16   
 5 12  9  25  24  23   
 6 66  67  78  79  80  69   
 6 31  32  48  50  51  34   
 6 73  74  75  85  84  77   
 6 78  77  84  88  87  79   
 4 75  76  86  85   
 5 21  20  37  38  22   
 6 60  61  62  74  73  65   
 6 26  27  29  47  48  32   
 5 62  63  76  75  74   
 6 68  69  80  81  82  70   
 5 71  70  82  83  72   
 5 49  43  44  61  60   
 5 7  6  17  18  19   
 7 56  55  54  68  70  71  57   
 6 84  85  86  93  92  88   
 6 51  50  64  67  66  52   
 6 44  45  46  63  62  61   
 5 90  89  94  96  91   
 5 10  13  27  26  15   
 4 1  3  5  4   
 6 29  30  28  43  49  47   
 5 2  4  6  7  8   
 6 53  52  66  69  68  54   
 6 64  65  73  77  78  67   
 5 11  12  23  28  30   
 5 94  95  97  99  96   
 5 92  93  98  97  95   
 6 80  79  87  89  90  81   
 5 3  10  15  14  5   
 4 97  98  100  99   
 5 82  81  90  91  83   
 5 58  57  71  72  59   
 5 22  38  39  40  41   
 6 87  88  92  95  94  89   
 5 36  35  53  54  55   
 6 28  23  24  45  44  43   
 7 19  18  33  35  36  37  20   
 6 4  5  14  16  17  6   
 5 13  11  30  29  27   
 5 41  40  58  59  42   
 7 48  47  49  60  65  64  50   
 6 17  16  31  34  33  18   
 5 8  7  19  20  21   
 6 33  34  51  52  53  35   
 6 38  37  36  55  56  39   
 4 0  1  4  2   
 5 39  56  57  58  40   
  
 POINT_DATA 101 
 SCALARS Field float 1
 LOOKUP_TABLE default
0.000000e+00  
 0.000000e+00  
 0.000000e+00  
 0.000000e+00  
 9.512010e-03  
 1.352153e-02  
 1.639412e-02  
 1.146086e-02  
 0.000000e+00  
 0.000000e+00  
 0.000000e+00  
 0.000000e+00  
 0.000000e+00  
 0.000000e+00  
 1.956884e-02  
 1.812040e-02  
 2.851818e-02  
 2.684742e-02  
 3.193794e-02  
 2.132665e-02  
 1.692398e-02  
 0.000000e+00  
 0.000000e+00  
 7.441681e-03  
 7.456032e-03  
 0.000000e+00  
 2.391014e-02  
 1.925129e-02  
 1.636876e-02  
 2.213942e-02  
 1.485769e-02  
 3.702032e-02  
 3.542527e-02  
 3.724548e-02  
 4.275503e-02  
 3.794906e-02  
 2.971435e-02  
 2.269098e-02  
 1.183951e-02  
 1.536167e-02  
 7.248825e-03  
 0.000000e+00  
 0.000000e+00  
 2.297821e-02  
 1.768168e-02  
 1.323268e-02  
 0.000000e+00  
 3.465835e-02  
 3.942879e-02  
 3.303853e-02  
 4.576171e-02  
 4.666340e-02  
 4.705389e-02  
 4.353270e-02  
 3.632566e-02  
 2.928936e-02  
 2.454517e-02  
 1.673639e-02  
 7.661666e-03  
 0.000000e+00  
 3.571916e-02  
 2.195332e-02  
 2.033027e-02  
 0.000000e+00  
 4.531913e-02  
 3.966425e-02  
 4.635483e-02  
 4.570773e-02  
 3.520954e-02  
 3.910838e-02  
 2.298415e-02  
 1.634567e-02  
 0.000000e+00  
 3.451992e-02  
 2.274418e-02  
 1.831938e-02  
 0.000000e+00  
 3.559253e-02  
 4.017626e-02  
 3.466955e-02  
 3.514982e-02  
 2.327090e-02  
 1.875830e-02  
 0.000000e+00  
 2.336944e-02  
 1.751753e-02  
 0.000000e+00  
 2.715273e-02  
 2.217963e-02  
 1.899500e-02  
 1.750646e-02  
 0.000000e+00  
 1.402285e-02  
 0.000000e+00  
 1.402639e-02  
 1.044207e-02  
 0.000000e+00  
 7.243493e-03  
 0.000000e+00  
 0.000000e+00  
 0.000000e+00  
  
 