# vtk DataFile Version 1.0 
PolyMesh 
ASCII 
 
DATASET POLYDATA 
 
POINTS 25 float 
0.000000e+00 0.000000e+00 0.000000e+00  
 2.500000e-01 0.000000e+00 0.000000e+00  
 5.000000e-01 0.000000e+00 0.000000e+00  
 7.500000e-01 0.000000e+00 0.000000e+00  
 1.000000e+00 0.000000e+00 0.000000e+00  
 0.000000e+00 2.500000e-01 0.000000e+00  
 2.500000e-01 2.500000e-01 0.000000e+00  
 5.000000e-01 2.500000e-01 0.000000e+00  
 7.500000e-01 2.500000e-01 0.000000e+00  
 1.000000e+00 2.500000e-01 0.000000e+00  
 0.000000e+00 5.000000e-01 0.000000e+00  
 2.500000e-01 5.000000e-01 0.000000e+00  
 5.000000e-01 5.000000e-01 0.000000e+00  
 7.500000e-01 5.000000e-01 0.000000e+00  
 1.000000e+00 5.000000e-01 0.000000e+00  
 0.000000e+00 7.500000e-01 0.000000e+00  
 2.500000e-01 7.500000e-01 0.000000e+00  
 5.000000e-01 7.500000e-01 0.000000e+00  
 7.500000e-01 7.500000e-01 0.000000e+00  
 1.000000e+00 7.500000e-01 0.000000e+00  
 0.000000e+00 1.000000e+00 0.000000e+00  
 2.500000e-01 1.000000e+00 0.000000e+00  
 5.000000e-01 1.000000e+00 0.000000e+00  
 7.500000e-01 1.000000e+00 0.000000e+00  
 1.000000e+00 1.000000e+00 0.000000e+00  
  
 POLYGONS 16 80 
 4 0  1  6  5   
 4 1  2  7  6   
 4 2  3  8  7   
 4 3  4  9  8   
 4 5  6  11  10   
 4 6  7  12  11   
 4 7  8  13  12   
 4 8  9  14  13   
 4 10  11  16  15   
 4 11  12  17  16   
 4 12  13  18  17   
 4 13  14  19  18   
 4 15  16  21  20   
 4 16  17  22  21   
 4 17  18  23  22   
 4 18  19  24  23   
  
 POINT_DATA 25 
 SCALARS Field float 1
 LOOKUP_TABLE default
0.000000e+00  
 0.000000e+00  
 0.000000e+00  
 0.000000e+00  
 0.000000e+00  
 0.000000e+00  
 2.667354e-02  
 3.772209e-02  
 2.667354e-02  
 0.000000e+00  
 0.000000e+00  
 3.772209e-02  
 5.334709e-02  
 3.772209e-02  
 0.000000e+00  
 0.000000e+00  
 2.667354e-02  
 3.772209e-02  
 2.667354e-02  
 0.000000e+00  
 0.000000e+00  
 0.000000e+00  
 0.000000e+00  
 0.000000e+00  
 0.000000e+00  
  
 