# vtk DataFile Version 1.0 
PolyMesh 
ASCII 
 
DATASET POLYDATA 
 
POINTS 289 float 
0.000000e+00 0.000000e+00 0.000000e+00  
 6.250000e-02 0.000000e+00 0.000000e+00  
 1.250000e-01 0.000000e+00 0.000000e+00  
 1.875000e-01 0.000000e+00 0.000000e+00  
 2.500000e-01 0.000000e+00 0.000000e+00  
 3.125000e-01 0.000000e+00 0.000000e+00  
 3.750000e-01 0.000000e+00 0.000000e+00  
 4.375000e-01 0.000000e+00 0.000000e+00  
 5.000000e-01 0.000000e+00 0.000000e+00  
 5.625000e-01 0.000000e+00 0.000000e+00  
 6.250000e-01 0.000000e+00 0.000000e+00  
 6.875000e-01 0.000000e+00 0.000000e+00  
 7.500000e-01 0.000000e+00 0.000000e+00  
 8.125000e-01 0.000000e+00 0.000000e+00  
 8.750000e-01 0.000000e+00 0.000000e+00  
 9.375000e-01 0.000000e+00 0.000000e+00  
 1.000000e+00 0.000000e+00 0.000000e+00  
 0.000000e+00 6.250000e-02 0.000000e+00  
 6.250000e-02 6.250000e-02 0.000000e+00  
 1.250000e-01 6.250000e-02 0.000000e+00  
 1.875000e-01 6.250000e-02 0.000000e+00  
 2.500000e-01 6.250000e-02 0.000000e+00  
 3.125000e-01 6.250000e-02 0.000000e+00  
 3.750000e-01 6.250000e-02 0.000000e+00  
 4.375000e-01 6.250000e-02 0.000000e+00  
 5.000000e-01 6.250000e-02 0.000000e+00  
 5.625000e-01 6.250000e-02 0.000000e+00  
 6.250000e-01 6.250000e-02 0.000000e+00  
 6.875000e-01 6.250000e-02 0.000000e+00  
 7.500000e-01 6.250000e-02 0.000000e+00  
 8.125000e-01 6.250000e-02 0.000000e+00  
 8.750000e-01 6.250000e-02 0.000000e+00  
 9.375000e-01 6.250000e-02 0.000000e+00  
 1.000000e+00 6.250000e-02 0.000000e+00  
 0.000000e+00 1.250000e-01 0.000000e+00  
 6.250000e-02 1.250000e-01 0.000000e+00  
 1.250000e-01 1.250000e-01 0.000000e+00  
 1.875000e-01 1.250000e-01 0.000000e+00  
 2.500000e-01 1.250000e-01 0.000000e+00  
 3.125000e-01 1.250000e-01 0.000000e+00  
 3.750000e-01 1.250000e-01 0.000000e+00  
 4.375000e-01 1.250000e-01 0.000000e+00  
 5.000000e-01 1.250000e-01 0.000000e+00  
 5.625000e-01 1.250000e-01 0.000000e+00  
 6.250000e-01 1.250000e-01 0.000000e+00  
 6.875000e-01 1.250000e-01 0.000000e+00  
 7.500000e-01 1.250000e-01 0.000000e+00  
 8.125000e-01 1.250000e-01 0.000000e+00  
 8.750000e-01 1.250000e-01 0.000000e+00  
 9.375000e-01 1.250000e-01 0.000000e+00  
 1.000000e+00 1.250000e-01 0.000000e+00  
 0.000000e+00 1.875000e-01 0.000000e+00  
 6.250000e-02 1.875000e-01 0.000000e+00  
 1.250000e-01 1.875000e-01 0.000000e+00  
 1.875000e-01 1.875000e-01 0.000000e+00  
 2.500000e-01 1.875000e-01 0.000000e+00  
 3.125000e-01 1.875000e-01 0.000000e+00  
 3.750000e-01 1.875000e-01 0.000000e+00  
 4.375000e-01 1.875000e-01 0.000000e+00  
 5.000000e-01 1.875000e-01 0.000000e+00  
 5.625000e-01 1.875000e-01 0.000000e+00  
 6.250000e-01 1.875000e-01 0.000000e+00  
 6.875000e-01 1.875000e-01 0.000000e+00  
 7.500000e-01 1.875000e-01 0.000000e+00  
 8.125000e-01 1.875000e-01 0.000000e+00  
 8.750000e-01 1.875000e-01 0.000000e+00  
 9.375000e-01 1.875000e-01 0.000000e+00  
 1.000000e+00 1.875000e-01 0.000000e+00  
 0.000000e+00 2.500000e-01 0.000000e+00  
 6.250000e-02 2.500000e-01 0.000000e+00  
 1.250000e-01 2.500000e-01 0.000000e+00  
 1.875000e-01 2.500000e-01 0.000000e+00  
 2.500000e-01 2.500000e-01 0.000000e+00  
 3.125000e-01 2.500000e-01 0.000000e+00  
 3.750000e-01 2.500000e-01 0.000000e+00  
 4.375000e-01 2.500000e-01 0.000000e+00  
 5.000000e-01 2.500000e-01 0.000000e+00  
 5.625000e-01 2.500000e-01 0.000000e+00  
 6.250000e-01 2.500000e-01 0.000000e+00  
 6.875000e-01 2.500000e-01 0.000000e+00  
 7.500000e-01 2.500000e-01 0.000000e+00  
 8.125000e-01 2.500000e-01 0.000000e+00  
 8.750000e-01 2.500000e-01 0.000000e+00  
 9.375000e-01 2.500000e-01 0.000000e+00  
 1.000000e+00 2.500000e-01 0.000000e+00  
 0.000000e+00 3.125000e-01 0.000000e+00  
 6.250000e-02 3.125000e-01 0.000000e+00  
 1.250000e-01 3.125000e-01 0.000000e+00  
 1.875000e-01 3.125000e-01 0.000000e+00  
 2.500000e-01 3.125000e-01 0.000000e+00  
 3.125000e-01 3.125000e-01 0.000000e+00  
 3.750000e-01 3.125000e-01 0.000000e+00  
 4.375000e-01 3.125000e-01 0.000000e+00  
 5.000000e-01 3.125000e-01 0.000000e+00  
 5.625000e-01 3.125000e-01 0.000000e+00  
 6.250000e-01 3.125000e-01 0.000000e+00  
 6.875000e-01 3.125000e-01 0.000000e+00  
 7.500000e-01 3.125000e-01 0.000000e+00  
 8.125000e-01 3.125000e-01 0.000000e+00  
 8.750000e-01 3.125000e-01 0.000000e+00  
 9.375000e-01 3.125000e-01 0.000000e+00  
 1.000000e+00 3.125000e-01 0.000000e+00  
 0.000000e+00 3.750000e-01 0.000000e+00  
 6.250000e-02 3.750000e-01 0.000000e+00  
 1.250000e-01 3.750000e-01 0.000000e+00  
 1.875000e-01 3.750000e-01 0.000000e+00  
 2.500000e-01 3.750000e-01 0.000000e+00  
 3.125000e-01 3.750000e-01 0.000000e+00  
 3.750000e-01 3.750000e-01 0.000000e+00  
 4.375000e-01 3.750000e-01 0.000000e+00  
 5.000000e-01 3.750000e-01 0.000000e+00  
 5.625000e-01 3.750000e-01 0.000000e+00  
 6.250000e-01 3.750000e-01 0.000000e+00  
 6.875000e-01 3.750000e-01 0.000000e+00  
 7.500000e-01 3.750000e-01 0.000000e+00  
 8.125000e-01 3.750000e-01 0.000000e+00  
 8.750000e-01 3.750000e-01 0.000000e+00  
 9.375000e-01 3.750000e-01 0.000000e+00  
 1.000000e+00 3.750000e-01 0.000000e+00  
 0.000000e+00 4.375000e-01 0.000000e+00  
 6.250000e-02 4.375000e-01 0.000000e+00  
 1.250000e-01 4.375000e-01 0.000000e+00  
 1.875000e-01 4.375000e-01 0.000000e+00  
 2.500000e-01 4.375000e-01 0.000000e+00  
 3.125000e-01 4.375000e-01 0.000000e+00  
 3.750000e-01 4.375000e-01 0.000000e+00  
 4.375000e-01 4.375000e-01 0.000000e+00  
 5.000000e-01 4.375000e-01 0.000000e+00  
 5.625000e-01 4.375000e-01 0.000000e+00  
 6.250000e-01 4.375000e-01 0.000000e+00  
 6.875000e-01 4.375000e-01 0.000000e+00  
 7.500000e-01 4.375000e-01 0.000000e+00  
 8.125000e-01 4.375000e-01 0.000000e+00  
 8.750000e-01 4.375000e-01 0.000000e+00  
 9.375000e-01 4.375000e-01 0.000000e+00  
 1.000000e+00 4.375000e-01 0.000000e+00  
 0.000000e+00 5.000000e-01 0.000000e+00  
 6.250000e-02 5.000000e-01 0.000000e+00  
 1.250000e-01 5.000000e-01 0.000000e+00  
 1.875000e-01 5.000000e-01 0.000000e+00  
 2.500000e-01 5.000000e-01 0.000000e+00  
 3.125000e-01 5.000000e-01 0.000000e+00  
 3.750000e-01 5.000000e-01 0.000000e+00  
 4.375000e-01 5.000000e-01 0.000000e+00  
 5.000000e-01 5.000000e-01 0.000000e+00  
 5.625000e-01 5.000000e-01 0.000000e+00  
 6.250000e-01 5.000000e-01 0.000000e+00  
 6.875000e-01 5.000000e-01 0.000000e+00  
 7.500000e-01 5.000000e-01 0.000000e+00  
 8.125000e-01 5.000000e-01 0.000000e+00  
 8.750000e-01 5.000000e-01 0.000000e+00  
 9.375000e-01 5.000000e-01 0.000000e+00  
 1.000000e+00 5.000000e-01 0.000000e+00  
 0.000000e+00 5.625000e-01 0.000000e+00  
 6.250000e-02 5.625000e-01 0.000000e+00  
 1.250000e-01 5.625000e-01 0.000000e+00  
 1.875000e-01 5.625000e-01 0.000000e+00  
 2.500000e-01 5.625000e-01 0.000000e+00  
 3.125000e-01 5.625000e-01 0.000000e+00  
 3.750000e-01 5.625000e-01 0.000000e+00  
 4.375000e-01 5.625000e-01 0.000000e+00  
 5.000000e-01 5.625000e-01 0.000000e+00  
 5.625000e-01 5.625000e-01 0.000000e+00  
 6.250000e-01 5.625000e-01 0.000000e+00  
 6.875000e-01 5.625000e-01 0.000000e+00  
 7.500000e-01 5.625000e-01 0.000000e+00  
 8.125000e-01 5.625000e-01 0.000000e+00  
 8.750000e-01 5.625000e-01 0.000000e+00  
 9.375000e-01 5.625000e-01 0.000000e+00  
 1.000000e+00 5.625000e-01 0.000000e+00  
 0.000000e+00 6.250000e-01 0.000000e+00  
 6.250000e-02 6.250000e-01 0.000000e+00  
 1.250000e-01 6.250000e-01 0.000000e+00  
 1.875000e-01 6.250000e-01 0.000000e+00  
 2.500000e-01 6.250000e-01 0.000000e+00  
 3.125000e-01 6.250000e-01 0.000000e+00  
 3.750000e-01 6.250000e-01 0.000000e+00  
 4.375000e-01 6.250000e-01 0.000000e+00  
 5.000000e-01 6.250000e-01 0.000000e+00  
 5.625000e-01 6.250000e-01 0.000000e+00  
 6.250000e-01 6.250000e-01 0.000000e+00  
 6.875000e-01 6.250000e-01 0.000000e+00  
 7.500000e-01 6.250000e-01 0.000000e+00  
 8.125000e-01 6.250000e-01 0.000000e+00  
 8.750000e-01 6.250000e-01 0.000000e+00  
 9.375000e-01 6.250000e-01 0.000000e+00  
 1.000000e+00 6.250000e-01 0.000000e+00  
 0.000000e+00 6.875000e-01 0.000000e+00  
 6.250000e-02 6.875000e-01 0.000000e+00  
 1.250000e-01 6.875000e-01 0.000000e+00  
 1.875000e-01 6.875000e-01 0.000000e+00  
 2.500000e-01 6.875000e-01 0.000000e+00  
 3.125000e-01 6.875000e-01 0.000000e+00  
 3.750000e-01 6.875000e-01 0.000000e+00  
 4.375000e-01 6.875000e-01 0.000000e+00  
 5.000000e-01 6.875000e-01 0.000000e+00  
 5.625000e-01 6.875000e-01 0.000000e+00  
 6.250000e-01 6.875000e-01 0.000000e+00  
 6.875000e-01 6.875000e-01 0.000000e+00  
 7.500000e-01 6.875000e-01 0.000000e+00  
 8.125000e-01 6.875000e-01 0.000000e+00  
 8.750000e-01 6.875000e-01 0.000000e+00  
 9.375000e-01 6.875000e-01 0.000000e+00  
 1.000000e+00 6.875000e-01 0.000000e+00  
 0.000000e+00 7.500000e-01 0.000000e+00  
 6.250000e-02 7.500000e-01 0.000000e+00  
 1.250000e-01 7.500000e-01 0.000000e+00  
 1.875000e-01 7.500000e-01 0.000000e+00  
 2.500000e-01 7.500000e-01 0.000000e+00  
 3.125000e-01 7.500000e-01 0.000000e+00  
 3.750000e-01 7.500000e-01 0.000000e+00  
 4.375000e-01 7.500000e-01 0.000000e+00  
 5.000000e-01 7.500000e-01 0.000000e+00  
 5.625000e-01 7.500000e-01 0.000000e+00  
 6.250000e-01 7.500000e-01 0.000000e+00  
 6.875000e-01 7.500000e-01 0.000000e+00  
 7.500000e-01 7.500000e-01 0.000000e+00  
 8.125000e-01 7.500000e-01 0.000000e+00  
 8.750000e-01 7.500000e-01 0.000000e+00  
 9.375000e-01 7.500000e-01 0.000000e+00  
 1.000000e+00 7.500000e-01 0.000000e+00  
 0.000000e+00 8.125000e-01 0.000000e+00  
 6.250000e-02 8.125000e-01 0.000000e+00  
 1.250000e-01 8.125000e-01 0.000000e+00  
 1.875000e-01 8.125000e-01 0.000000e+00  
 2.500000e-01 8.125000e-01 0.000000e+00  
 3.125000e-01 8.125000e-01 0.000000e+00  
 3.750000e-01 8.125000e-01 0.000000e+00  
 4.375000e-01 8.125000e-01 0.000000e+00  
 5.000000e-01 8.125000e-01 0.000000e+00  
 5.625000e-01 8.125000e-01 0.000000e+00  
 6.250000e-01 8.125000e-01 0.000000e+00  
 6.875000e-01 8.125000e-01 0.000000e+00  
 7.500000e-01 8.125000e-01 0.000000e+00  
 8.125000e-01 8.125000e-01 0.000000e+00  
 8.750000e-01 8.125000e-01 0.000000e+00  
 9.375000e-01 8.125000e-01 0.000000e+00  
 1.000000e+00 8.125000e-01 0.000000e+00  
 0.000000e+00 8.750000e-01 0.000000e+00  
 6.250000e-02 8.750000e-01 0.000000e+00  
 1.250000e-01 8.750000e-01 0.000000e+00  
 1.875000e-01 8.750000e-01 0.000000e+00  
 2.500000e-01 8.750000e-01 0.000000e+00  
 3.125000e-01 8.750000e-01 0.000000e+00  
 3.750000e-01 8.750000e-01 0.000000e+00  
 4.375000e-01 8.750000e-01 0.000000e+00  
 5.000000e-01 8.750000e-01 0.000000e+00  
 5.625000e-01 8.750000e-01 0.000000e+00  
 6.250000e-01 8.750000e-01 0.000000e+00  
 6.875000e-01 8.750000e-01 0.000000e+00  
 7.500000e-01 8.750000e-01 0.000000e+00  
 8.125000e-01 8.750000e-01 0.000000e+00  
 8.750000e-01 8.750000e-01 0.000000e+00  
 9.375000e-01 8.750000e-01 0.000000e+00  
 1.000000e+00 8.750000e-01 0.000000e+00  
 0.000000e+00 9.375000e-01 0.000000e+00  
 6.250000e-02 9.375000e-01 0.000000e+00  
 1.250000e-01 9.375000e-01 0.000000e+00  
 1.875000e-01 9.375000e-01 0.000000e+00  
 2.500000e-01 9.375000e-01 0.000000e+00  
 3.125000e-01 9.375000e-01 0.000000e+00  
 3.750000e-01 9.375000e-01 0.000000e+00  
 4.375000e-01 9.375000e-01 0.000000e+00  
 5.000000e-01 9.375000e-01 0.000000e+00  
 5.625000e-01 9.375000e-01 0.000000e+00  
 6.250000e-01 9.375000e-01 0.000000e+00  
 6.875000e-01 9.375000e-01 0.000000e+00  
 7.500000e-01 9.375000e-01 0.000000e+00  
 8.125000e-01 9.375000e-01 0.000000e+00  
 8.750000e-01 9.375000e-01 0.000000e+00  
 9.375000e-01 9.375000e-01 0.000000e+00  
 1.000000e+00 9.375000e-01 0.000000e+00  
 0.000000e+00 1.000000e+00 0.000000e+00  
 6.250000e-02 1.000000e+00 0.000000e+00  
 1.250000e-01 1.000000e+00 0.000000e+00  
 1.875000e-01 1.000000e+00 0.000000e+00  
 2.500000e-01 1.000000e+00 0.000000e+00  
 3.125000e-01 1.000000e+00 0.000000e+00  
 3.750000e-01 1.000000e+00 0.000000e+00  
 4.375000e-01 1.000000e+00 0.000000e+00  
 5.000000e-01 1.000000e+00 0.000000e+00  
 5.625000e-01 1.000000e+00 0.000000e+00  
 6.250000e-01 1.000000e+00 0.000000e+00  
 6.875000e-01 1.000000e+00 0.000000e+00  
 7.500000e-01 1.000000e+00 0.000000e+00  
 8.125000e-01 1.000000e+00 0.000000e+00  
 8.750000e-01 1.000000e+00 0.000000e+00  
 9.375000e-01 1.000000e+00 0.000000e+00  
 1.000000e+00 1.000000e+00 0.000000e+00  
  
 POLYGONS 256 1280 
 4 0  1  18  17   
 4 1  2  19  18   
 4 2  3  20  19   
 4 3  4  21  20   
 4 4  5  22  21   
 4 5  6  23  22   
 4 6  7  24  23   
 4 7  8  25  24   
 4 8  9  26  25   
 4 9  10  27  26   
 4 10  11  28  27   
 4 11  12  29  28   
 4 12  13  30  29   
 4 13  14  31  30   
 4 14  15  32  31   
 4 15  16  33  32   
 4 17  18  35  34   
 4 18  19  36  35   
 4 19  20  37  36   
 4 20  21  38  37   
 4 21  22  39  38   
 4 22  23  40  39   
 4 23  24  41  40   
 4 24  25  42  41   
 4 25  26  43  42   
 4 26  27  44  43   
 4 27  28  45  44   
 4 28  29  46  45   
 4 29  30  47  46   
 4 30  31  48  47   
 4 31  32  49  48   
 4 32  33  50  49   
 4 34  35  52  51   
 4 35  36  53  52   
 4 36  37  54  53   
 4 37  38  55  54   
 4 38  39  56  55   
 4 39  40  57  56   
 4 40  41  58  57   
 4 41  42  59  58   
 4 42  43  60  59   
 4 43  44  61  60   
 4 44  45  62  61   
 4 45  46  63  62   
 4 46  47  64  63   
 4 47  48  65  64   
 4 48  49  66  65   
 4 49  50  67  66   
 4 51  52  69  68   
 4 52  53  70  69   
 4 53  54  71  70   
 4 54  55  72  71   
 4 55  56  73  72   
 4 56  57  74  73   
 4 57  58  75  74   
 4 58  59  76  75   
 4 59  60  77  76   
 4 60  61  78  77   
 4 61  62  79  78   
 4 62  63  80  79   
 4 63  64  81  80   
 4 64  65  82  81   
 4 65  66  83  82   
 4 66  67  84  83   
 4 68  69  86  85   
 4 69  70  87  86   
 4 70  71  88  87   
 4 71  72  89  88   
 4 72  73  90  89   
 4 73  74  91  90   
 4 74  75  92  91   
 4 75  76  93  92   
 4 76  77  94  93   
 4 77  78  95  94   
 4 78  79  96  95   
 4 79  80  97  96   
 4 80  81  98  97   
 4 81  82  99  98   
 4 82  83  100  99   
 4 83  84  101  100   
 4 85  86  103  102   
 4 86  87  104  103   
 4 87  88  105  104   
 4 88  89  106  105   
 4 89  90  107  106   
 4 90  91  108  107   
 4 91  92  109  108   
 4 92  93  110  109   
 4 93  94  111  110   
 4 94  95  112  111   
 4 95  96  113  112   
 4 96  97  114  113   
 4 97  98  115  114   
 4 98  99  116  115   
 4 99  100  117  116   
 4 100  101  118  117   
 4 102  103  120  119   
 4 103  104  121  120   
 4 104  105  122  121   
 4 105  106  123  122   
 4 106  107  124  123   
 4 107  108  125  124   
 4 108  109  126  125   
 4 109  110  127  126   
 4 110  111  128  127   
 4 111  112  129  128   
 4 112  113  130  129   
 4 113  114  131  130   
 4 114  115  132  131   
 4 115  116  133  132   
 4 116  117  134  133   
 4 117  118  135  134   
 4 119  120  137  136   
 4 120  121  138  137   
 4 121  122  139  138   
 4 122  123  140  139   
 4 123  124  141  140   
 4 124  125  142  141   
 4 125  126  143  142   
 4 126  127  144  143   
 4 127  128  145  144   
 4 128  129  146  145   
 4 129  130  147  146   
 4 130  131  148  147   
 4 131  132  149  148   
 4 132  133  150  149   
 4 133  134  151  150   
 4 134  135  152  151   
 4 136  137  154  153   
 4 137  138  155  154   
 4 138  139  156  155   
 4 139  140  157  156   
 4 140  141  158  157   
 4 141  142  159  158   
 4 142  143  160  159   
 4 143  144  161  160   
 4 144  145  162  161   
 4 145  146  163  162   
 4 146  147  164  163   
 4 147  148  165  164   
 4 148  149  166  165   
 4 149  150  167  166   
 4 150  151  168  167   
 4 151  152  169  168   
 4 153  154  171  170   
 4 154  155  172  171   
 4 155  156  173  172   
 4 156  157  174  173   
 4 157  158  175  174   
 4 158  159  176  175   
 4 159  160  177  176   
 4 160  161  178  177   
 4 161  162  179  178   
 4 162  163  180  179   
 4 163  164  181  180   
 4 164  165  182  181   
 4 165  166  183  182   
 4 166  167  184  183   
 4 167  168  185  184   
 4 168  169  186  185   
 4 170  171  188  187   
 4 171  172  189  188   
 4 172  173  190  189   
 4 173  174  191  190   
 4 174  175  192  191   
 4 175  176  193  192   
 4 176  177  194  193   
 4 177  178  195  194   
 4 178  179  196  195   
 4 179  180  197  196   
 4 180  181  198  197   
 4 181  182  199  198   
 4 182  183  200  199   
 4 183  184  201  200   
 4 184  185  202  201   
 4 185  186  203  202   
 4 187  188  205  204   
 4 188  189  206  205   
 4 189  190  207  206   
 4 190  191  208  207   
 4 191  192  209  208   
 4 192  193  210  209   
 4 193  194  211  210   
 4 194  195  212  211   
 4 195  196  213  212   
 4 196  197  214  213   
 4 197  198  215  214   
 4 198  199  216  215   
 4 199  200  217  216   
 4 200  201  218  217   
 4 201  202  219  218   
 4 202  203  220  219   
 4 204  205  222  221   
 4 205  206  223  222   
 4 206  207  224  223   
 4 207  208  225  224   
 4 208  209  226  225   
 4 209  210  227  226   
 4 210  211  228  227   
 4 211  212  229  228   
 4 212  213  230  229   
 4 213  214  231  230   
 4 214  215  232  231   
 4 215  216  233  232   
 4 216  217  234  233   
 4 217  218  235  234   
 4 218  219  236  235   
 4 219  220  237  236   
 4 221  222  239  238   
 4 222  223  240  239   
 4 223  224  241  240   
 4 224  225  242  241   
 4 225  226  243  242   
 4 226  227  244  243   
 4 227  228  245  244   
 4 228  229  246  245   
 4 229  230  247  246   
 4 230  231  248  247   
 4 231  232  249  248   
 4 232  233  250  249   
 4 233  234  251  250   
 4 234  235  252  251   
 4 235  236  253  252   
 4 236  237  254  253   
 4 238  239  256  255   
 4 239  240  257  256   
 4 240  241  258  257   
 4 241  242  259  258   
 4 242  243  260  259   
 4 243  244  261  260   
 4 244  245  262  261   
 4 245  246  263  262   
 4 246  247  264  263   
 4 247  248  265  264   
 4 248  249  266  265   
 4 249  250  267  266   
 4 250  251  268  267   
 4 251  252  269  268   
 4 252  253  270  269   
 4 253  254  271  270   
 4 255  256  273  272   
 4 256  257  274  273   
 4 257  258  275  274   
 4 258  259  276  275   
 4 259  260  277  276   
 4 260  261  278  277   
 4 261  262  279  278   
 4 262  263  280  279   
 4 263  264  281  280   
 4 264  265  282  281   
 4 265  266  283  282   
 4 266  267  284  283   
 4 267  268  285  284   
 4 268  269  286  285   
 4 269  270  287  286   
 4 270  271  288  287   
  
 POINT_DATA 289 
 SCALARS Field float 1
 LOOKUP_TABLE default
0.000000e+00  
 0.000000e+00  
 0.000000e+00  
 0.000000e+00  
 0.000000e+00  
 0.000000e+00  
 0.000000e+00  
 0.000000e+00  
 0.000000e+00  
 0.000000e+00  
 0.000000e+00  
 0.000000e+00  
 0.000000e+00  
 0.000000e+00  
 0.000000e+00  
 0.000000e+00  
 0.000000e+00  
 0.000000e+00  
 1.934361e-03  
 3.794385e-03  
 5.508593e-03  
 7.011109e-03  
 8.244192e-03  
 9.160455e-03  
 9.724688e-03  
 9.915205e-03  
 9.724688e-03  
 9.160455e-03  
 8.244192e-03  
 7.011109e-03  
 5.508593e-03  
 3.794385e-03  
 1.934361e-03  
 0.000000e+00  
 0.000000e+00  
 3.794385e-03  
 7.442954e-03  
 1.080549e-02  
 1.375279e-02  
 1.617156e-02  
 1.796888e-02  
 1.907566e-02  
 1.944938e-02  
 1.907566e-02  
 1.796888e-02  
 1.617156e-02  
 1.375279e-02  
 1.080549e-02  
 7.442954e-03  
 3.794385e-03  
 0.000000e+00  
 0.000000e+00  
 5.508593e-03  
 1.080549e-02  
 1.568715e-02  
 1.996595e-02  
 2.347747e-02  
 2.608677e-02  
 2.769357e-02  
 2.823612e-02  
 2.769357e-02  
 2.608677e-02  
 2.347747e-02  
 1.996595e-02  
 1.568715e-02  
 1.080549e-02  
 5.508593e-03  
 0.000000e+00  
 0.000000e+00  
 7.011109e-03  
 1.375279e-02  
 1.996595e-02  
 2.541183e-02  
 2.988115e-02  
 3.320216e-02  
 3.524723e-02  
 3.593776e-02  
 3.524723e-02  
 3.320216e-02  
 2.988115e-02  
 2.541183e-02  
 1.996595e-02  
 1.375279e-02  
 7.011109e-03  
 0.000000e+00  
 0.000000e+00  
 8.244192e-03  
 1.617156e-02  
 2.347747e-02  
 2.988115e-02  
 3.513652e-02  
 3.904161e-02  
 4.144635e-02  
 4.225833e-02  
 4.144635e-02  
 3.904161e-02  
 3.513652e-02  
 2.988115e-02  
 2.347747e-02  
 1.617156e-02  
 8.244192e-03  
 0.000000e+00  
 0.000000e+00  
 9.160455e-03  
 1.796888e-02  
 2.608677e-02  
 3.320216e-02  
 3.904161e-02  
 4.338071e-02  
 4.605272e-02  
 4.695495e-02  
 4.605272e-02  
 4.338071e-02  
 3.904161e-02  
 3.320216e-02  
 2.608677e-02  
 1.796888e-02  
 9.160455e-03  
 0.000000e+00  
 0.000000e+00  
 9.724688e-03  
 1.907566e-02  
 2.769357e-02  
 3.524723e-02  
 4.144635e-02  
 4.605272e-02  
 4.888931e-02  
 4.984710e-02  
 4.888931e-02  
 4.605272e-02  
 4.144635e-02  
 3.524723e-02  
 2.769357e-02  
 1.907566e-02  
 9.724688e-03  
 0.000000e+00  
 0.000000e+00  
 9.915205e-03  
 1.944938e-02  
 2.823612e-02  
 3.593776e-02  
 4.225833e-02  
 4.695495e-02  
 4.984710e-02  
 5.082367e-02  
 4.984710e-02  
 4.695495e-02  
 4.225833e-02  
 3.593776e-02  
 2.823612e-02  
 1.944938e-02  
 9.915205e-03  
 0.000000e+00  
 0.000000e+00  
 9.724688e-03  
 1.907566e-02  
 2.769357e-02  
 3.524723e-02  
 4.144635e-02  
 4.605272e-02  
 4.888931e-02  
 4.984710e-02  
 4.888931e-02  
 4.605272e-02  
 4.144635e-02  
 3.524723e-02  
 2.769357e-02  
 1.907566e-02  
 9.724688e-03  
 0.000000e+00  
 0.000000e+00  
 9.160455e-03  
 1.796888e-02  
 2.608677e-02  
 3.320216e-02  
 3.904161e-02  
 4.338071e-02  
 4.605272e-02  
 4.695495e-02  
 4.605272e-02  
 4.338071e-02  
 3.904161e-02  
 3.320216e-02  
 2.608677e-02  
 1.796888e-02  
 9.160455e-03  
 0.000000e+00  
 0.000000e+00  
 8.244192e-03  
 1.617156e-02  
 2.347747e-02  
 2.988115e-02  
 3.513652e-02  
 3.904161e-02  
 4.144635e-02  
 4.225833e-02  
 4.144635e-02  
 3.904161e-02  
 3.513652e-02  
 2.988115e-02  
 2.347747e-02  
 1.617156e-02  
 8.244192e-03  
 0.000000e+00  
 0.000000e+00  
 7.011109e-03  
 1.375279e-02  
 1.996595e-02  
 2.541183e-02  
 2.988115e-02  
 3.320216e-02  
 3.524723e-02  
 3.593776e-02  
 3.524723e-02  
 3.320216e-02  
 2.988115e-02  
 2.541183e-02  
 1.996595e-02  
 1.375279e-02  
 7.011109e-03  
 0.000000e+00  
 0.000000e+00  
 5.508593e-03  
 1.080549e-02  
 1.568715e-02  
 1.996595e-02  
 2.347747e-02  
 2.608677e-02  
 2.769357e-02  
 2.823612e-02  
 2.769357e-02  
 2.608677e-02  
 2.347747e-02  
 1.996595e-02  
 1.568715e-02  
 1.080549e-02  
 5.508593e-03  
 0.000000e+00  
 0.000000e+00  
 3.794385e-03  
 7.442954e-03  
 1.080549e-02  
 1.375279e-02  
 1.617156e-02  
 1.796888e-02  
 1.907566e-02  
 1.944938e-02  
 1.907566e-02  
 1.796888e-02  
 1.617156e-02  
 1.375279e-02  
 1.080549e-02  
 7.442954e-03  
 3.794385e-03  
 0.000000e+00  
 0.000000e+00  
 1.934361e-03  
 3.794385e-03  
 5.508593e-03  
 7.011109e-03  
 8.244192e-03  
 9.160455e-03  
 9.724688e-03  
 9.915205e-03  
 9.724688e-03  
 9.160455e-03  
 8.244192e-03  
 7.011109e-03  
 5.508593e-03  
 3.794385e-03  
 1.934361e-03  
 0.000000e+00  
 0.000000e+00  
 0.000000e+00  
 0.000000e+00  
 0.000000e+00  
 0.000000e+00  
 0.000000e+00  
 0.000000e+00  
 0.000000e+00  
 0.000000e+00  
 0.000000e+00  
 0.000000e+00  
 0.000000e+00  
 0.000000e+00  
 0.000000e+00  
 0.000000e+00  
 0.000000e+00  
 0.000000e+00  
  
 