# vtk DataFile Version 1.0 
PolyMesh 
ASCII 
 
DATASET POLYDATA 
 
POINTS 35 float 
-2.115000e-13 1.962853e-01 0.000000e+00  
 -1.818000e-13 5.965745e-01 0.000000e+00  
 0.000000e+00 0.000000e+00 0.000000e+00  
 0.000000e+00 1.000000e+00 0.000000e+00  
 3.842900e-12 7.987381e-01 0.000000e+00  
 4.362300e-12 3.973079e-01 0.000000e+00  
 1.640311e-01 1.000000e+00 0.000000e+00  
 1.739781e-01 3.922521e-01 0.000000e+00  
 1.872057e-01 2.671400e-12 0.000000e+00  
 1.890786e-01 7.803932e-01 0.000000e+00  
 2.533387e-01 1.963991e-01 0.000000e+00  
 2.546689e-01 5.846137e-01 0.000000e+00  
 3.283471e-01 1.000000e+00 0.000000e+00  
 3.884274e-01 3.894040e-01 0.000000e+00  
 3.937863e-01 2.815000e-12 0.000000e+00  
 3.948750e-01 7.811534e-01 0.000000e+00  
 5.000000e-01 5.828149e-01 0.000000e+00  
 5.000000e-01 1.965349e-01 0.000000e+00  
 5.000000e-01 1.000000e+00 0.000000e+00  
 6.051250e-01 7.811534e-01 0.000000e+00  
 6.062136e-01 2.815000e-12 0.000000e+00  
 6.115726e-01 3.894040e-01 0.000000e+00  
 6.716529e-01 1.000000e+00 0.000000e+00  
 7.453311e-01 5.846137e-01 0.000000e+00  
 7.466613e-01 1.963991e-01 0.000000e+00  
 8.109214e-01 7.803932e-01 0.000000e+00  
 8.127943e-01 2.671400e-12 0.000000e+00  
 8.260219e-01 3.922521e-01 0.000000e+00  
 8.359689e-01 1.000000e+00 0.000000e+00  
 1.000000e+00 0.000000e+00 0.000000e+00  
 1.000000e+00 1.000000e+00 0.000000e+00  
 1.000000e+00 5.965744e-01 0.000000e+00  
 1.000000e+00 1.962853e-01 0.000000e+00  
 1.000000e+00 7.987381e-01 0.000000e+00  
 1.000000e+00 3.973079e-01 0.000000e+00  
  
 POLYGONS 47 188 
 3 31  33  25   
 3 20  24  17   
 3 0  7  5   
 3 5  7  1   
 3 10  7  0   
 3 13  10  17   
 3 7  10  13   
 3 6  3  4   
 3 4  9  6   
 3 1  9  4   
 3 11  13  16   
 3 7  13  11   
 3 1  7  11   
 3 11  9  1   
 3 17  24  21   
 3 16  13  21   
 3 21  13  17   
 3 6  9  12   
 3 22  19  25   
 3 18  19  22   
 3 24  20  26   
 3 29  32  26   
 3 26  32  24   
 3 14  20  17   
 3 17  10  14   
 3 27  21  24   
 3 27  32  34   
 3 24  32  27   
 3 34  31  27   
 3 15  19  18   
 3 18  12  15   
 3 15  12  9   
 3 16  19  15   
 3 15  11  16   
 3 9  11  15   
 3 28  22  25   
 3 28  33  30   
 3 25  33  28   
 3 8  14  10   
 3 0  2  8   
 3 8  10  0   
 3 23  31  25   
 3 23  27  31   
 3 23  19  16   
 3 25  19  23   
 3 16  21  23   
 3 21  27  23   
  
 POINT_DATA 35 
 SCALARS Field float 1
 LOOKUP_TABLE default
0.000000e+00  
 0.000000e+00  
 0.000000e+00  
 0.000000e+00  
 0.000000e+00  
 0.000000e+00  
 0.000000e+00  
 2.278916e-02  
 0.000000e+00  
 1.653930e-02  
 1.936654e-02  
 3.249598e-02  
 0.000000e+00  
 4.153515e-02  
 0.000000e+00  
 2.782966e-02  
 4.535478e-02  
 2.722070e-02  
 0.000000e+00  
 2.782966e-02  
 0.000000e+00  
 4.153515e-02  
 0.000000e+00  
 3.249598e-02  
 1.936654e-02  
 1.653930e-02  
 0.000000e+00  
 2.278916e-02  
 0.000000e+00  
 0.000000e+00  
 0.000000e+00  
 0.000000e+00  
 0.000000e+00  
 0.000000e+00  
 0.000000e+00  
  
 