# vtk DataFile Version 1.0 
PolyMesh 
ASCII 
 
DATASET POLYDATA 
 
POINTS 2002 float 
8.480000e-14 1.000000e+00 0.000000e+00  
 -2.864400e-12 9.671832e-01 0.000000e+00  
 2.888435e-02 9.697816e-01 0.000000e+00  
 2.903818e-02 1.000000e+00 0.000000e+00  
 -2.864400e-12 9.368719e-01 0.000000e+00  
 2.265115e-02 9.347716e-01 0.000000e+00  
 3.609866e-02 9.636366e-01 0.000000e+00  
 3.715730e-02 9.511579e-01 0.000000e+00  
 6.003666e-02 9.748268e-01 0.000000e+00  
 5.946887e-02 1.000000e+00 0.000000e+00  
 9.232751e-02 1.000000e+00 0.000000e+00  
 8.860000e-14 9.004454e-01 0.000000e+00  
 3.238437e-02 9.149818e-01 0.000000e+00  
 2.443846e-02 9.012098e-01 0.000000e+00  
 5.972595e-02 9.372819e-01 0.000000e+00  
 5.428180e-02 9.169939e-01 0.000000e+00  
 7.250940e-02 9.434648e-01 0.000000e+00  
 7.399600e-02 9.653476e-01 0.000000e+00  
 9.207852e-02 9.735522e-01 0.000000e+00  
 8.860000e-14 8.668745e-01 0.000000e+00  
 1.069075e-01 9.646118e-01 0.000000e+00  
 1.249881e-01 9.746279e-01 0.000000e+00  
 1.247735e-01 1.000000e+00 0.000000e+00  
 3.447297e-02 8.834507e-01 0.000000e+00  
 2.425805e-02 8.668405e-01 0.000000e+00  
 6.473439e-02 9.038362e-01 0.000000e+00  
 5.200732e-02 8.831670e-01 0.000000e+00  
 8.972682e-02 9.338679e-01 0.000000e+00  
 9.132422e-02 9.187356e-01 0.000000e+00  
 7.567162e-02 9.033339e-01 0.000000e+00  
 1.075784e-01 9.461126e-01 0.000000e+00  
 9.060000e-14 8.329838e-01 0.000000e+00  
 3.426091e-02 8.492083e-01 0.000000e+00  
 2.542403e-02 8.332793e-01 0.000000e+00  
 1.579823e-01 1.000000e+00 0.000000e+00  
 1.257104e-01 9.359565e-01 0.000000e+00  
 1.407503e-01 9.438968e-01 0.000000e+00  
 1.413917e-01 9.652443e-01 0.000000e+00  
 1.577695e-01 9.739144e-01 0.000000e+00  
 6.305956e-02 8.662346e-01 0.000000e+00  
 5.486678e-02 8.500853e-01 0.000000e+00  
 1.238084e-01 9.134545e-01 0.000000e+00  
 8.311154e-02 8.683701e-01 0.000000e+00  
 8.975330e-02 8.819493e-01 0.000000e+00  
 1.082880e-01 8.863750e-01 0.000000e+00  
 1.130628e-01 9.079507e-01 0.000000e+00  
 1.906527e-01 1.000000e+00 0.000000e+00  
 9.110000e-14 7.998508e-01 0.000000e+00  
 3.482941e-02 8.164139e-01 0.000000e+00  
 2.588818e-02 7.999146e-01 0.000000e+00  
 5.604134e-02 8.167307e-01 0.000000e+00  
 6.460306e-02 8.336827e-01 0.000000e+00  
 1.742039e-01 9.648536e-01 0.000000e+00  
 1.906139e-01 9.736459e-01 0.000000e+00  
 1.413316e-01 9.047928e-01 0.000000e+00  
 1.572811e-01 9.126362e-01 0.000000e+00  
 1.574803e-01 9.347112e-01 0.000000e+00  
 1.740192e-01 9.434728e-01 0.000000e+00  
 8.636975e-02 8.345081e-01 0.000000e+00  
 9.389237e-02 8.511170e-01 0.000000e+00  
 1.164214e-01 8.534685e-01 0.000000e+00  
 1.408672e-01 8.791598e-01 0.000000e+00  
 1.220930e-01 8.737330e-01 0.000000e+00  
 2.071732e-01 9.647560e-01 0.000000e+00  
 2.233119e-01 9.735990e-01 0.000000e+00  
 2.233318e-01 1.000000e+00 0.000000e+00  
 9.110000e-14 7.667141e-01 0.000000e+00  
 3.503651e-02 7.833963e-01 0.000000e+00  
 2.574531e-02 7.666742e-01 0.000000e+00  
 5.567239e-02 7.832751e-01 0.000000e+00  
 6.535784e-02 8.007334e-01 0.000000e+00  
 9.569547e-02 8.191380e-01 0.000000e+00  
 8.502963e-02 8.004614e-01 0.000000e+00  
 2.071577e-01 9.434530e-01 0.000000e+00  
 1.905702e-01 9.342207e-01 0.000000e+00  
 1.518135e-01 8.723975e-01 0.000000e+00  
 1.737625e-01 8.841863e-01 0.000000e+00  
 1.727021e-01 9.040398e-01 0.000000e+00  
 1.905905e-01 9.140265e-01 0.000000e+00  
 1.273617e-01 8.394853e-01 0.000000e+00  
 1.137608e-01 8.182379e-01 0.000000e+00  
 1.380383e-01 8.388174e-01 0.000000e+00  
 1.547616e-01 8.544445e-01 0.000000e+00  
 2.559459e-01 1.000000e+00 0.000000e+00  
 2.242001e-01 9.342432e-01 0.000000e+00  
 2.401038e-01 9.431623e-01 0.000000e+00  
 2.402466e-01 9.647391e-01 0.000000e+00  
 2.558193e-01 9.733605e-01 0.000000e+00  
 2.881623e-01 1.000000e+00 0.000000e+00  
 9.080000e-14 7.334695e-01 0.000000e+00  
 3.496379e-02 7.499207e-01 0.000000e+00  
 2.570339e-02 7.334560e-01 0.000000e+00  
 6.508595e-02 7.666776e-01 0.000000e+00  
 5.562399e-02 7.498882e-01 0.000000e+00  
 9.500445e-02 7.838564e-01 0.000000e+00  
 8.533815e-02 7.666775e-01 0.000000e+00  
 1.240570e-01 8.016534e-01 0.000000e+00  
 1.145300e-01 7.841328e-01 0.000000e+00  
 2.075214e-01 9.040033e-01 0.000000e+00  
 2.240016e-01 9.132454e-01 0.000000e+00  
 1.732111e-01 8.463222e-01 0.000000e+00  
 1.887704e-01 8.554824e-01 0.000000e+00  
 1.884250e-01 8.748878e-01 0.000000e+00  
 2.069751e-01 8.850012e-01 0.000000e+00  
 1.451481e-01 8.023365e-01 0.000000e+00  
 1.524713e-01 8.164662e-01 0.000000e+00  
 1.736519e-01 8.212563e-01 0.000000e+00  
 3.198719e-01 1.000000e+00 0.000000e+00  
 3.510644e-01 1.000000e+00 0.000000e+00  
 2.732709e-01 9.645341e-01 0.000000e+00  
 2.880309e-01 9.727689e-01 0.000000e+00  
 2.413034e-01 9.037795e-01 0.000000e+00  
 2.573602e-01 9.128817e-01 0.000000e+00  
 2.575579e-01 9.340073e-01 0.000000e+00  
 2.728606e-01 9.427665e-01 0.000000e+00  
 3.057538e-01 9.644238e-01 0.000000e+00  
 3.198097e-01 9.723153e-01 0.000000e+00  
 9.070000e-14 7.002798e-01 0.000000e+00  
 9.040000e-14 6.671580e-01 0.000000e+00  
 3.494111e-02 7.164658e-01 0.000000e+00  
 2.560416e-02 7.002435e-01 0.000000e+00  
 6.505261e-02 7.328782e-01 0.000000e+00  
 5.534472e-02 7.163692e-01 0.000000e+00  
 8.477698e-02 7.326830e-01 0.000000e+00  
 9.511488e-02 7.496085e-01 0.000000e+00  
 1.135882e-01 7.492482e-01 0.000000e+00  
 1.251952e-01 7.669660e-01 0.000000e+00  
 1.544287e-01 7.853297e-01 0.000000e+00  
 1.405011e-01 7.664930e-01 0.000000e+00  
 1.810711e-01 8.161595e-01 0.000000e+00  
 2.243524e-01 8.734702e-01 0.000000e+00  
 2.410695e-01 8.828386e-01 0.000000e+00  
 2.059254e-01 8.259809e-01 0.000000e+00  
 2.047048e-01 8.463431e-01 0.000000e+00  
 2.231431e-01 8.569311e-01 0.000000e+00  
 1.841356e-01 7.952372e-01 0.000000e+00  
 1.710016e-01 7.827624e-01 0.000000e+00  
 9.030000e-14 6.341768e-01 0.000000e+00  
 3.821918e-01 1.000000e+00 0.000000e+00  
 3.376590e-01 9.644231e-01 0.000000e+00  
 3.512693e-01 9.723673e-01 0.000000e+00  
 3.694142e-01 9.648400e-01 0.000000e+00  
 3.823562e-01 9.732605e-01 0.000000e+00  
 3.054516e-01 9.414522e-01 0.000000e+00  
 2.914086e-01 9.332562e-01 0.000000e+00  
 2.580425e-01 8.735784e-01 0.000000e+00  
 2.905396e-01 9.126782e-01 0.000000e+00  
 2.748917e-01 8.827356e-01 0.000000e+00  
 2.748755e-01 9.034588e-01 0.000000e+00  
 3.241108e-01 9.330365e-01 0.000000e+00  
 3.378293e-01 9.411860e-01 0.000000e+00  
 3.484247e-02 6.829421e-01 0.000000e+00  
 2.554207e-02 6.671237e-01 0.000000e+00  
 3.476050e-02 6.494255e-01 0.000000e+00  
 2.544035e-02 6.341938e-01 0.000000e+00  
 6.480809e-02 6.989064e-01 0.000000e+00  
 5.524526e-02 6.828572e-01 0.000000e+00  
 9.463143e-02 7.148294e-01 0.000000e+00  
 8.479678e-02 6.988470e-01 0.000000e+00  
 1.241372e-01 7.307223e-01 0.000000e+00  
 1.137547e-01 7.148441e-01 0.000000e+00  
 1.415674e-01 7.307883e-01 0.000000e+00  
 1.533151e-01 7.468434e-01 0.000000e+00  
 1.783141e-01 7.617453e-01 0.000000e+00  
 1.653507e-01 7.471283e-01 0.000000e+00  
 2.151053e-01 8.193455e-01 0.000000e+00  
 2.048413e-01 7.886008e-01 0.000000e+00  
 2.170856e-01 7.984246e-01 0.000000e+00  
 2.418227e-01 8.425298e-01 0.000000e+00  
 2.579335e-01 8.507826e-01 0.000000e+00  
 2.389834e-01 8.284037e-01 0.000000e+00  
 2.736005e-01 8.429845e-01 0.000000e+00  
 2.071999e-01 7.662971e-01 0.000000e+00  
 1.975485e-01 7.585452e-01 0.000000e+00  
 9.100000e-14 6.015788e-01 0.000000e+00  
 3.483084e-02 6.154118e-01 0.000000e+00  
 2.562702e-02 6.016773e-01 0.000000e+00  
 9.150000e-14 5.700500e-01 0.000000e+00  
 9.150000e-14 5.408108e-01 0.000000e+00  
 9.240000e-14 5.108046e-01 0.000000e+00  
 4.127128e-01 1.000000e+00 0.000000e+00  
 4.414532e-01 1.000000e+00 0.000000e+00  
 4.708481e-01 1.000000e+00 0.000000e+00  
 4.991250e-01 1.000000e+00 0.000000e+00  
 4.030670e-01 9.652047e-01 0.000000e+00  
 4.128901e-01 9.729545e-01 0.000000e+00  
 3.558729e-01 9.334335e-01 0.000000e+00  
 3.704984e-01 9.425629e-01 0.000000e+00  
 4.036453e-01 9.464576e-01 0.000000e+00  
 3.872277e-01 9.353232e-01 0.000000e+00  
 3.239217e-01 9.099919e-01 0.000000e+00  
 3.105384e-01 9.014867e-01 0.000000e+00  
 2.925398e-01 8.547634e-01 0.000000e+00  
 2.911059e-01 8.734864e-01 0.000000e+00  
 3.092179e-01 8.848507e-01 0.000000e+00  
 3.439683e-01 9.019467e-01 0.000000e+00  
 3.568890e-01 9.106102e-01 0.000000e+00  
 5.294061e-01 1.000000e+00 0.000000e+00  
 6.456735e-02 6.653033e-01 0.000000e+00  
 5.493094e-02 6.492527e-01 0.000000e+00  
 5.378846e-02 6.152705e-01 0.000000e+00  
 6.424241e-02 6.318316e-01 0.000000e+00  
 9.438284e-02 6.807852e-01 0.000000e+00  
 8.501498e-02 6.651143e-01 0.000000e+00  
 1.238821e-01 6.958948e-01 0.000000e+00  
 1.151192e-01 6.809906e-01 0.000000e+00  
 1.452845e-01 6.969525e-01 0.000000e+00  
 1.526068e-01 7.104016e-01 0.000000e+00  
 1.759094e-01 7.136011e-01 0.000000e+00  
 2.005766e-01 7.321039e-01 0.000000e+00  
 1.806180e-01 7.244718e-01 0.000000e+00  
 2.526810e-01 8.107385e-01 0.000000e+00  
 2.358804e-01 7.919588e-01 0.000000e+00  
 2.263408e-01 7.612739e-01 0.000000e+00  
 2.411831e-01 7.758260e-01 0.000000e+00  
 3.067953e-01 8.466596e-01 0.000000e+00  
 2.765108e-01 8.220502e-01 0.000000e+00  
 2.627586e-01 8.097615e-01 0.000000e+00  
 2.970274e-01 8.161914e-01 0.000000e+00  
 3.098948e-01 8.282152e-01 0.000000e+00  
 2.118268e-01 7.267263e-01 0.000000e+00  
 2.319897e-01 7.417092e-01 0.000000e+00  
 3.485316e-02 5.804032e-01 0.000000e+00  
 2.676335e-02 5.701199e-01 0.000000e+00  
 6.401434e-02 5.972763e-01 0.000000e+00  
 5.267761e-02 5.803744e-01 0.000000e+00  
 3.382503e-02 5.443682e-01 0.000000e+00  
 2.902133e-02 5.120260e-01 0.000000e+00  
 2.910513e-02 5.397342e-01 0.000000e+00  
 9.240000e-14 4.816994e-01 0.000000e+00  
 9.220000e-14 4.504378e-01 0.000000e+00  
 3.397142e-02 5.071638e-01 0.000000e+00  
 2.727105e-02 4.816798e-01 0.000000e+00  
 4.383510e-01 9.666478e-01 0.000000e+00  
 4.423936e-01 9.706757e-01 0.000000e+00  
 4.695468e-01 9.709787e-01 0.000000e+00  
[...]
 POINT_DATA 2002 
 SCALARS Field float 1
 LOOKUP_TABLE default
0.000000e+00  
 0.000000e+00  
 4.348560e-04  
 0.000000e+00  
 0.000000e+00  
 7.331986e-04  
 6.760020e-04  
 8.921469e-04  
 7.485731e-04  
 0.000000e+00  
 0.000000e+00  
 0.000000e+00  
 1.355085e-03  
 1.182590e-03  
 1.844039e-03  
 2.210096e-03  
 2.012043e-03  
 1.268801e-03  
 1.197012e-03  
 0.000000e+00  
 1.850544e-03  
 1.541461e-03  
 0.000000e+00  
 1.957015e-03  
 1.564589e-03  
 3.045298e-03  
 2.952638e-03  
 2.901614e-03  
 3.614319e-03  
 3.558082e-03  
 2.823440e-03  
 0.000000e+00  
 2.477578e-03  
 2.018366e-03  
 0.000000e+00  
 3.887449e-03  
 3.793523e-03  
 2.368667e-03  
 1.969669e-03  
 4.058055e-03  
 3.934628e-03  
 5.146661e-03  
 5.242060e-03  
 5.091782e-03  
 5.893793e-03  
 5.010066e-03  
 0.000000e+00  
 0.000000e+00  
 3.011443e-03  
 2.416625e-03  
 4.821875e-03  
 5.084788e-03  
 2.900731e-03  
 2.358649e-03  
 6.395014e-03  
 6.499519e-03  
 4.889781e-03  
 4.644377e-03  
 6.730785e-03  
 6.623125e-03  
 8.025037e-03  
 8.022011e-03  
 7.306741e-03  
 3.386267e-03  
 2.705033e-03  
 0.000000e+00  
 0.000000e+00  
 3.495236e-03  
 2.734584e-03  
 5.537823e-03  
 6.039581e-03  
 8.055935e-03  
 7.826810e-03  
 5.413427e-03  
 5.846943e-03  
 9.061450e-03  
 9.338766e-03  
 7.751875e-03  
 7.602710e-03  
 9.522881e-03  
 9.556657e-03  
 1.030015e-02  
 1.042821e-02  
 0.000000e+00  
 6.714568e-03  
 6.149510e-03  
 3.830631e-03  
 3.044102e-03  
 0.000000e+00  
 0.000000e+00  
 3.920787e-03  
 3.030915e-03  
 6.867846e-03  
 6.217379e-03  
 9.334435e-03  
 8.959031e-03  
 1.120524e-02  
 1.116355e-02  
 9.110344e-03  
 8.805198e-03  
 1.214344e-02  
 1.239265e-02  
 1.080477e-02  
 1.081549e-02  
 1.294802e-02  
 1.269142e-02  
 1.397630e-02  
 0.000000e+00  
 0.000000e+00  
 4.256014e-03  
 3.398435e-03  
 1.034530e-02  
 9.881887e-03  
 7.530499e-03  
 6.835166e-03  
 4.622260e-03  
 3.708220e-03  
 0.000000e+00  
 0.000000e+00  
 4.307337e-03  
 3.286042e-03  
 7.633590e-03  
 6.801759e-03  
 9.904239e-03  
 1.053474e-02  
 1.251362e-02  
 1.295098e-02  
 1.472209e-02  
 1.445553e-02  
 1.487641e-02  
 1.267886e-02  
 1.249558e-02  
 1.584662e-02  
 1.407122e-02  
 1.416452e-02  
 1.657082e-02  
 1.631370e-02  
 0.000000e+00  
 0.000000e+00  
 4.922603e-03  
 3.915475e-03  
 5.111832e-03  
 3.957116e-03  
 7.572083e-03  
 8.342029e-03  
 1.416696e-02  
 1.083213e-02  
 1.383816e-02  
 1.147500e-02  
 8.983539e-03  
 8.107816e-03  
 4.636497e-03  
 3.508086e-03  
 4.914948e-03  
 3.684306e-03  
 8.288919e-03  
 7.328872e-03  
 1.155920e-02  
 1.079302e-02  
 1.438381e-02  
 1.380264e-02  
 1.627431e-02  
 1.672289e-02  
 1.827812e-02  
 1.790508e-02  
 1.700799e-02  
 1.869392e-02  
 1.885766e-02  
 1.652660e-02  
 1.654664e-02  
 1.770022e-02  
 1.812647e-02  
 2.052403e-02  
 2.022234e-02  
 0.000000e+00  
 5.163173e-03  
 3.861306e-03  
 0.000000e+00  
 0.000000e+00  
 0.000000e+00  
 0.000000e+00  
 0.000000e+00  
 0.000000e+00  
 0.000000e+00  
 5.262767e-03  
 4.132228e-03  
 9.435182e-03  
 8.332614e-03  
 8.079314e-03  
 9.565662e-03  
 1.199917e-02  
 1.274698e-02  
 1.770937e-02  
 1.550080e-02  
 1.476515e-02  
 1.351593e-02  
 1.261435e-02  
 0.000000e+00  
 8.840273e-03  
 7.744512e-03  
 7.951224e-03  
 9.275885e-03  
 1.244840e-02  
 1.158547e-02  
 1.565662e-02  
 1.506938e-02  
 1.814619e-02  
 1.839932e-02  
 2.077860e-02  
 2.221053e-02  
 2.068218e-02  
 2.019759e-02  
 2.074894e-02  
 2.248198e-02  
 2.249801e-02  
 1.924020e-02  
 2.046607e-02  
 2.090860e-02  
 2.216958e-02  
 2.148250e-02  
 2.362545e-02  
 2.441065e-02  
 5.349919e-03  
 4.144009e-03  
 9.629189e-03  
 8.064464e-03  
 5.309802e-03  
 4.599899e-03  
 4.580357e-03  
 0.000000e+00  
 0.000000e+00  
 5.386118e-03  
 4.319326e-03  
 5.187911e-03  
 4.575170e-03  
 4.582692e-03  
 5.324980e-03  
 4.467872e-03  
 5.511966e-03  
 4.280269e-03  
 8.078308e-03  
 9.740878e-03  
 1.268258e-02  
 1.394317e-02  
 1.218937e-02  
 1.368732e-02  
 1.657599e-02  
 1.745927e-02  
 1.841098e-02  
 1.813113e-02  
 1.689502e-02  
 0.000000e+00  
 5.494392e-03  
 4.113574e-03  
 1.203912e-02  
 1.316624e-02  
 1.219167e-02  
 1.358924e-02  
 1.679077e-02  
 1.587392e-02  
 1.926736e-02  
 2.001141e-02  
 2.276285e-02  
 2.219633e-02  
 2.520267e-02  
 2.474815e-02  
 2.407272e-02  
 2.380549e-02  
 2.602817e-02  
 2.613843e-02  
 2.143383e-02  
 2.304126e-02  
 2.447662e-02  
 2.499318e-02  
 2.504773e-02  
 2.608661e-02  
 2.752577e-02  
 2.771559e-02  
 8.085051e-03  
 9.902521e-03  
 1.392648e-02  
 1.231780e-02  
 9.967334e-03  
 8.278164e-03  
 0.000000e+00  
 0.000000e+00  
 5.526592e-03  
 4.153802e-03  
 5.465564e-03  
 4.020917e-03  
 8.573709e-03  
 1.016352e-02  
 0.000000e+00  
 0.000000e+00  
 0.000000e+00  
 0.000000e+00  
 0.000000e+00  
 8.564551e-03  
 9.859593e-03  
 1.024499e-02  
 8.811482e-03  
 8.755220e-03  
 1.024600e-02  
 1.299783e-02  
 1.389132e-02  
 1.829376e-02  
 1.720600e-02  
 1.725485e-02  
 2.071192e-02  
 2.196831e-02  
 2.039483e-02  
 2.210680e-02  
 5.388616e-03  
 3.951924e-03  
 1.009451e-02  
 8.550151e-03  
 1.747772e-02  
 1.631879e-02  
 1.635945e-02  
 1.777193e-02  
 2.012331e-02  
 2.111714e-02  
 2.422188e-02  
 2.327316e-02  
 2.676837e-02  
 2.602014e-02  
 2.914162e-02  
 2.869616e-02  
 2.774997e-02  
 2.741874e-02  
 2.972988e-02  
 2.960768e-02  
 2.635452e-02  
 2.516981e-02  
 2.819754e-02  
 2.891324e-02  
 2.870236e-02  
 2.971841e-02  
 3.138248e-02  
 3.122177e-02  
 1.413365e-02  
 1.260279e-02  
 1.669882e-02  
 1.810277e-02  
 1.436577e-02  
 1.295898e-02  
 5.325188e-03  
 3.875711e-03  
 5.120746e-03  
 3.688422e-03  
 1.015256e-02  
 8.590419e-03  
 8.421805e-03  
 9.980191e-03  
 1.460466e-02  
 1.311044e-02  
 4.863080e-03  
 3.465386e-03  
 0.000000e+00  
 4.539245e-03  
 3.184686e-03  
 0.000000e+00  
 0.000000e+00  
 5.227255e-03  
 3.789735e-03  
 5.016473e-03  
 3.617141e-03  
 4.752514e-03  
 3.419275e-03  
 1.332322e-02  
 1.457928e-02  
 1.479346e-02  
 1.339716e-02  
 1.471598e-02  
 1.317031e-02  
 1.875070e-02  
 1.756450e-02  
 2.225000e-02  
 2.078882e-02  
 2.478767e-02  
 2.598401e-02  
 2.453764e-02  
 2.575316e-02  
 9.838950e-03  
 8.270484e-03  
 1.443656e-02  
 1.279510e-02  
 2.172986e-02  
 2.058913e-02  
 2.175497e-02  
 2.050433e-02  
 2.428081e-02  
 2.543804e-02  
 2.697044e-02  
 2.812791e-02  
 3.056115e-02  
 2.978914e-02  
 3.287543e-02  
 3.242917e-02  
 3.140936e-02  
 3.097029e-02  
 3.328580e-02  
 3.315096e-02  
 3.006150e-02  
 2.891701e-02  
 3.178400e-02  
 3.251105e-02  
 3.212399e-02  
 3.316913e-02  
 3.474859e-02  
 3.493947e-02  
 1.844922e-02  
 1.729159e-02  
 2.144130e-02  
 2.221458e-02  
 1.752685e-02  
 1.886701e-02  
 9.687658e-03  
 8.133217e-03  
 9.260477e-03  
 7.709886e-03  
 1.298415e-02  
 1.454939e-02  
 1.263033e-02  
 1.425294e-02  
 1.897302e-02  
 1.748256e-02  
 7.201344e-03  
 8.732639e-03  
 0.000000e+00  
 4.177010e-03  
 2.903955e-03  
 6.555007e-03  
 8.066474e-03  
 0.000000e+00  
 0.000000e+00  
 0.000000e+00  
 4.444196e-03  
 3.203175e-03  
 4.084314e-03  
 2.944000e-03  
 0.000000e+00  
 9.495924e-03  
 7.938098e-03  
 7.552752e-03  
 9.064501e-03  
 7.087141e-03  
 8.533680e-03  
 1.791143e-02  
 1.916870e-02  
 1.923290e-02  
 1.776557e-02  
 1.896912e-02  
 1.731580e-02  
 2.189524e-02  
 2.301315e-02  
 2.562895e-02  
 2.630268e-02  
 2.982110e-02  
 2.910864e-02  
 2.915144e-02  
 1.232927e-02  
 1.401367e-02  
 1.673140e-02  
 1.850382e-02  
 2.601482e-02  
 2.508463e-02  
 2.536602e-02  
 2.779849e-02  
 2.932511e-02  
 3.059662e-02  
 3.170812e-02  
 3.341111e-02  
 3.411849e-02  
 3.591732e-02  
 3.640760e-02  
 3.490998e-02  
 3.449546e-02  
 3.654747e-02  
 3.664984e-02  
 3.231064e-02  
 3.349430e-02  
 3.591445e-02  
 3.523635e-02  
 3.641313e-02  
 3.543627e-02  
 3.802371e-02  
 3.825926e-02  
 2.295568e-02  
 2.181419e-02  
 2.670393e-02  
 2.579152e-02  
 2.321520e-02  
 2.185654e-02  
 1.212631e-02  
 1.377416e-02  
 1.307289e-02  
 1.139536e-02  
 1.714052e-02  
 1.876265e-02  
 1.653690e-02  
 1.825506e-02  
 2.156589e-02  
 2.313524e-02  
 1.224080e-02  
 1.056789e-02  
 3.773680e-03  
 2.622499e-03  
 7.352339e-03  
 5.922551e-03  
 9.477919e-03  
 1.117802e-02  
 0.000000e+00  
 3.315469e-03  
 2.291918e-03  
 0.000000e+00  
 0.000000e+00  
 0.000000e+00  
 0.000000e+00  
 0.000000e+00  
 0.000000e+00  
 0.000000e+00  
 3.678802e-03  
 2.648496e-03  
 3.221775e-03  
 2.312892e-03  
 7.930689e-03  
 6.563236e-03  
 7.216077e-03  
 5.919877e-03  
 3.853246e-04  
 0.000000e+00  
 1.345907e-02  
 1.178973e-02  
 1.116949e-02  
 1.277687e-02  
 1.194744e-02  
 1.037047e-02  
 2.226370e-02  
 2.356713e-02  
 2.337378e-02  
 2.182474e-02  
 2.109356e-02  
 2.290280e-02  
 2.626292e-02  
 2.737054e-02  
 3.084312e-02  
 3.229788e-02  
 2.978340e-02  
 3.344186e-02  
 1.606247e-02  
 1.786306e-02  
 2.220506e-02  
 2.030362e-02  
 2.443574e-02  
 2.984661e-02  
 2.870108e-02  
 3.186491e-02  
 3.278761e-02  
 3.423672e-02  
 3.504994e-02  
 3.755748e-02  
 3.680287e-02  
 3.900559e-02  
 3.965455e-02  
 3.790286e-02  
 3.824425e-02  
 3.975553e-02  
 3.965640e-02  
 3.691462e-02  
 3.595167e-02  
 3.851332e-02  
 3.905758e-02  
 3.831409e-02  
 3.931047e-02  
 4.088865e-02  
 4.127712e-02  
 2.721962e-02  
 2.600335e-02  
 3.070969e-02  
 2.964000e-02  
 2.730619e-02  
 2.580770e-02  
 1.754385e-02  
 1.579224e-02  
 1.650208e-02  
 1.467652e-02  
 2.096921e-02  
 2.269249e-02  
 2.190592e-02  
 2.006412e-02  
 2.527543e-02  
 2.696310e-02  
 1.534757e-02  
 1.352408e-02  
 1.008821e-02  
 6.569057e-03  
 5.274631e-03  
 8.481117e-03  
 1.185858e-02  
 1.382381e-02  
 2.835476e-03  
 1.962434e-03  
 4.482042e-03  
 5.673427e-03  
 2.295887e-03  
 1.571574e-03  
 0.000000e+00  
 0.000000e+00  
 0.000000e+00  
 0.000000e+00  
 0.000000e+00  
 2.723967e-03  
 1.976549e-03  
 9.098535e-04  
 1.097123e-03  
 2.177289e-03  
 1.585243e-03  
 1.616169e-03  
 9.807757e-04  
 7.008283e-04  
 6.409116e-03  
 5.190279e-03  
 5.489345e-03  
 4.352279e-03  
 1.101365e-02  
 9.491339e-03  
 9.880599e-03  
 8.378976e-03  
 8.520014e-04  
 0.000000e+00  
 1.532823e-02  
 1.706069e-02  
 1.443532e-02  
 1.613260e-02  
 1.320352e-02  
 1.495619e-02  
 2.653342e-02  
 2.774046e-02  
 2.643685e-02  
 2.722293e-02  
 2.544072e-02  
 3.141815e-02  
 3.046220e-02  
 3.387454e-02  
 3.680934e-02  
 3.440462e-02  
 2.130715e-02  
 1.951341e-02  
 2.543114e-02  
 2.368921e-02  
 2.836562e-02  
 2.779892e-02  
 2.933455e-02  
 3.365404e-02  
 3.302966e-02  
 3.621389e-02  
 3.848723e-02  
 3.640320e-02  
 3.916248e-02  
 4.056968e-02  
 4.235700e-02  
 4.174223e-02  
 4.234123e-02  
 3.776831e-02  
 4.115273e-02  
 4.146910e-02  
 4.243567e-02  
 4.002453e-02  
 4.003097e-02  
 4.206685e-02  
 4.124864e-02  
 4.188289e-02  
 4.363784e-02  
 4.372349e-02  
 2.973005e-02  
 3.112160e-02  
 3.450759e-02  
 3.333456e-02  
 3.094970e-02  
 2.935190e-02  
 2.094845e-02  
 1.909654e-02  
 1.949638e-02  
 1.747333e-02  
 2.624480e-02  
 2.442048e-02  
 2.512784e-02  
 2.315385e-02  
 2.860599e-02  
 3.034900e-02  
 1.803538e-02  
 1.600511e-02  
 1.594683e-02  
 8.887689e-03  
 1.045311e-02  
 1.233864e-02  
 7.490349e-03  
 1.352513e-02  
 4.759901e-03  
 3.686645e-03  
 6.238079e-03  
 7.495756e-03  
 3.753129e-03  
 1.753293e-03  
 2.769042e-03  
 1.440722e-03  
 1.241998e-03  
 8.511610e-04  
 5.747161e-04  
 3.966355e-04  
 0.000000e+00  
 4.488189e-03  
 3.495573e-03  
 2.032795e-03  
 2.481997e-03  
 3.350029e-03  
 2.174670e-03  
 1.242906e-03  
 8.614237e-03  
 7.144182e-03  
 5.673568e-03  
 7.169680e-03  
 1.195272e-02  
 1.365721e-02  
 1.203450e-02  
 1.029109e-02  
 1.236372e-03  
 0.000000e+00  
 1.853507e-02  
 2.032049e-02  
 1.731564e-02  
 1.913306e-02  
 1.754222e-02  
 1.549568e-02  
 3.825789e-02  
 3.026329e-02  
 3.186143e-02  
 3.056400e-02  
 3.367086e-02  
 3.540986e-02  
 3.648103e-02  
 2.447147e-02  
 2.268694e-02  
 2.689908e-02  
 2.853460e-02  
 3.303468e-02  
 3.168706e-02  
 3.251348e-02  
 3.101956e-02  
 3.756624e-02  
 3.661832e-02  
 4.032106e-02  
 3.954120e-02  
 4.228568e-02  
 4.281491e-02  
 4.021150e-02  
 4.447439e-02  
 4.467648e-02  
 4.418432e-02  
 4.491216e-02  
 4.173368e-02  
 4.177194e-02  
 4.376437e-02  
 4.447510e-02  
 4.347971e-02  
 4.321368e-02  
 4.435881e-02  
 4.604954e-02  
 4.578316e-02  
 3.313689e-02  
 3.458150e-02  
 3.782529e-02  
 3.659109e-02  
 3.251083e-02  
 3.415971e-02  
 1.959485e-02  
 2.396368e-02  
 2.205215e-02  
 2.212437e-02  
 2.936501e-02  
 2.752610e-02  
 2.591411e-02  
 2.790465e-02  
 3.153186e-02  
 3.330784e-02  
 2.022699e-02  
 1.900522e-02  
 1.757333e-02  
 1.590801e-02  
 1.393337e-02  
 9.280396e-03  
 1.239107e-02  
 1.064688e-02  
 9.037465e-03  
 6.124360e-03  
 5.072989e-03  
 6.979973e-03  
 2.931727e-03  
 4.442266e-03  
 2.523724e-03  
 1.923547e-03  
 1.126891e-03  
 8.737362e-04  
 0.000000e+00  
 4.144963e-03  
 5.616329e-03  
 3.979870e-03  
 2.787657e-03  
 2.740084e-03  
 1.837909e-03  
 8.510724e-03  
 1.025623e-02  
 6.539629e-03  
 8.148192e-03  
 1.138834e-02  
 1.366414e-02  
 1.584987e-02  
 1.390738e-02  
 1.570122e-03  
 0.000000e+00  
 2.139708e-02  
 2.327268e-02  
 2.180892e-02  
 1.980678e-02  
 1.723250e-02  
 1.980864e-02  
 3.806330e-02  
 4.014870e-02  
 3.423592e-02  
 3.515630e-02  
 3.738686e-02  
 2.742895e-02  
 2.563672e-02  
 2.985560e-02  
 3.157379e-02  
 3.599261e-02  
 3.466889e-02  
 3.542320e-02  
 3.372715e-02  
 4.066303e-02  
 3.970108e-02  
 4.317181e-02  
 4.248515e-02  
 4.104694e-02  
 4.487206e-02  
 4.529443e-02  
 4.325334e-02  
 4.301606e-02  
 4.679720e-02  
 4.671288e-02  
 4.673111e-02  
 4.616779e-02  
 4.481107e-02  
 4.653588e-02  
 4.482272e-02  
 4.576203e-02  
 4.599201e-02  
 4.759490e-02  
 4.785522e-02  
 3.611768e-02  
 3.759088e-02  
 3.944429e-02  
 4.063109e-02  
 3.688179e-02  
 3.516437e-02  
 2.402420e-02  
 2.284924e-02  
 2.601304e-02  
 2.675422e-02  
 3.203177e-02  
 3.026688e-02  
 2.991314e-02  
 3.368515e-02  
 3.572461e-02  
 2.351811e-02  
 2.002225e-02  
 2.199445e-02  
 1.632527e-02  
 1.844612e-02  
 1.258584e-02  
 1.486444e-02  
 1.146177e-02  
 1.009178e-02  
 6.982973e-03  
 8.620604e-03  
 4.758833e-03  
 5.950738e-03  
 2.720980e-03  
 3.599735e-03  
 1.704312e-03  
 1.297901e-03  
 0.000000e+00  
 5.984089e-03  
 3.847593e-03  
 4.952796e-03  
 3.899337e-03  
 2.327087e-03  
 6.501253e-03  
 1.112147e-02  
 9.194329e-03  
 8.546572e-03  
 1.487445e-02  
 1.179752e-02  
 1.404729e-02  
 1.700966e-02  
 1.773302e-02  
 1.977412e-03  
 0.000000e+00  
 2.412485e-02  
 2.599596e-02  
 2.440067e-02  
 2.301253e-02  
 2.155197e-02  
 2.034283e-02  
 3.866694e-02  
 4.076303e-02  
 3.781622e-02  
 4.141397e-02  
 2.841516e-02  
 3.019070e-02  
 3.229573e-02  
 3.412222e-02  
 3.876475e-02  
 3.722411e-02  
 3.596822e-02  
 3.768373e-02  
 4.329250e-02  
 4.239390e-02  
 4.556256e-02  
 4.491330e-02  
 4.396039e-02  
 4.361141e-02  
 4.695481e-02  
 4.734359e-02  
 4.587305e-02  
 4.563686e-02  
 4.841384e-02  
 4.849531e-02  
 4.777998e-02  
 4.833091e-02  
 4.798236e-02  
 4.713947e-02  
 4.717862e-02  
 4.922223e-02  
 4.894258e-02  
 3.873640e-02  
 4.013558e-02  
 4.300418e-02  
 4.189058e-02  
 3.758264e-02  
 3.917595e-02  
 3.781776e-02  
 2.722180e-02  
 2.573132e-02  
 3.077597e-02  
 2.918131e-02  
 3.234940e-02  
 3.414560e-02  
 3.622516e-02  
 3.638241e-02  
 2.631035e-02  
 2.456781e-02  
 2.264458e-02  
 1.880338e-02  
 2.085541e-02  
 1.509093e-02  
 1.715357e-02  
 1.359495e-02  
 1.187704e-02  
 1.034069e-02  
 8.759045e-03  
 7.294790e-03  
 5.892752e-03  
 4.635411e-03  
 3.634907e-03  
 2.254806e-03  
 1.595212e-03  
 0.000000e+00  
 4.827468e-03  
 6.070311e-03  
 4.362567e-03  
 2.862247e-03  
 9.216972e-03  
 7.423472e-03  
 1.041985e-02  
 1.139055e-02  
 1.779090e-02  
 1.665993e-02  
 1.500516e-02  
 1.350178e-02  
 1.999391e-02  
 2.104411e-02  
 2.184500e-03  
 0.000000e+00  
 2.848973e-02  
 2.706962e-02  
 2.378050e-02  
 2.670335e-02  
 2.450035e-02  
 4.054567e-02  
 4.123627e-02  
 4.336457e-02  
 4.424844e-02  
 3.241625e-02  
 3.057009e-02  
 3.607742e-02  
 3.422247e-02  
 3.939086e-02  
 4.056334e-02  
 3.929494e-02  
 3.773292e-02  
 4.545202e-02  
 4.456451e-02  
 4.744258e-02  
 4.677877e-02  
 4.633896e-02  
 4.571357e-02  
 4.848136e-02  
 4.888658e-02  
 4.791216e-02  
 4.756040e-02  
 4.971337e-02  
 4.959289e-02  
 4.947075e-02  
 4.891982e-02  
 4.885155e-02  
 4.983283e-02  
 5.005950e-02  
 4.099519e-02  
 4.226155e-02  
 4.489198e-02  
 4.379570e-02  
 4.106631e-02  
 3.977141e-02  
 3.951588e-02  
 3.825857e-02  
 3.014095e-02  
 2.837842e-02  
 3.345852e-02  
 3.167821e-02  
 3.457489e-02  
 3.758929e-02  
 3.548850e-02  
 2.869407e-02  
 2.692326e-02  
 2.496751e-02  
 2.109579e-02  
 2.307649e-02  
 1.724018e-02  
 1.922848e-02  
 1.549084e-02  
 1.366284e-02  
 1.026042e-02  
 1.193319e-02  
 8.599578e-03  
 7.129069e-03  
 5.533073e-03  
 4.332219e-03  
 2.789169e-03  
 1.939197e-03  
 0.000000e+00  
 7.251641e-03  
 5.596729e-03  
 5.079904e-03  
 3.304935e-03  
 8.712926e-03  
 1.026991e-02  
 1.197602e-02  
 1.359884e-02  
 2.420154e-02  
 1.895998e-02  
 1.717062e-02  
 2.066325e-02  
 1.548910e-02  
 2.225265e-02  
 2.497924e-03  
 0.000000e+00  
 2.813204e-02  
 3.042545e-02  
 2.769931e-02  
 2.618697e-02  
 4.236893e-02  
 4.350739e-02  
 4.606775e-02  
 4.501915e-02  
 3.193778e-02  
 3.406228e-02  
 3.555929e-02  
 3.746032e-02  
 4.231398e-02  
 4.093350e-02  
 4.063657e-02  
 3.890548e-02  
 4.707313e-02  
 4.615773e-02  
 4.875343e-02  
 4.808662e-02  
 4.798534e-02  
 4.716430e-02  
 4.986317e-02  
 4.949913e-02  
 4.931839e-02  
 4.875997e-02  
 5.031556e-02  
 5.037369e-02  
 4.986063e-02  
 5.049211e-02  
 5.006299e-02  
 4.266169e-02  
 4.386550e-02  
 4.622123e-02  
 4.506092e-02  
 4.103004e-02  
 4.235132e-02  
 3.842529e-02  
 4.039754e-02  
 3.110618e-02  
 3.236399e-02  
 3.444147e-02  
 3.511039e-02  
 3.763604e-02  
 3.098533e-02  
 2.713730e-02  
 2.858118e-02  
 2.492640e-02  
 2.313242e-02  
 2.104325e-02  
 1.915987e-02  
 1.531403e-02  
 1.716218e-02  
 1.164450e-02  
 1.338447e-02  
 9.773015e-03  
 8.200069e-03  
 5.048043e-03  
 6.389505e-03  
 3.265883e-03  
 2.208979e-03  
 0.000000e+00  
 6.481866e-03  
 8.242298e-03  
 5.764263e-03  
 3.764335e-03  
 9.920975e-03  
 1.176031e-02  
 1.365600e-02  
 1.543605e-02  
 2.544654e-02  
 2.292200e-02  
 2.154904e-02  
 1.757798e-02  
 1.922026e-02  
 2.807424e-03  
 0.000000e+00  
 2.955181e-02  
 3.153428e-02  
 2.609302e-02  
 2.886712e-02  
 4.503880e-02  
 4.375993e-02  
 4.727889e-02  
 4.615078e-02  
 3.508702e-02  
 3.306215e-02  
 3.843083e-02  
 3.642103e-02  
 4.350223e-02  
 4.199442e-02  
 3.960634e-02  
 4.150689e-02  
 4.813025e-02  
 4.713772e-02  
 4.878595e-02  
 4.953290e-02  
 4.803468e-02  
 4.892176e-02  
 5.035902e-02  
 4.986520e-02  
 4.991794e-02  
 4.941052e-02  
 5.053153e-02  
 5.041628e-02  
 5.050712e-02  
 5.020277e-02  
 4.360606e-02  
 4.484462e-02  
 4.693392e-02  
 4.566755e-02  
 4.131894e-02  
 4.292538e-02  
 3.831522e-02  
 4.047029e-02  
 3.424640e-02  
 3.260227e-02  
 3.519860e-02  
 3.735674e-02  
 3.095799e-02  
 2.866680e-02  
 2.690595e-02  
 2.477171e-02  
 2.274512e-02  
 2.077545e-02  
 1.678154e-02  
 1.867303e-02  
 1.468665e-02  
 1.288407e-02  
 1.083364e-02  
 9.166644e-03  
 5.687510e-03  
 7.162355e-03  
 3.717506e-03  
 2.486865e-03  
 0.000000e+00  
 9.387327e-03  
 7.282288e-03  
 6.483578e-03  
 4.179572e-03  
 1.329275e-02  
 1.110176e-02  
 1.740484e-02  
 1.512899e-02  
 2.172897e-02  
 2.545854e-02  
 2.297191e-02  
 1.919781e-02  
 3.139467e-03  
 0.000000e+00  
 3.000223e-02  
 3.231955e-02  
 2.896486e-02  
 2.699865e-02  
 4.593009e-02  
 4.462231e-02  
 4.784264e-02  
 4.673970e-02  
 3.344996e-02  
 3.572879e-02  
 3.896051e-02  
 3.675880e-02  
 4.253273e-02  
 4.407760e-02  
 3.980292e-02  
 4.190086e-02  
 4.759309e-02  
 4.856527e-02  