# vtk DataFile Version 1.0 
PolyMesh 
ASCII 
 
DATASET POLYDATA 
 
POINTS 3264 float 
0.000000e+00 0.000000e+00 0.000000e+00  
 2.127660e-02 0.000000e+00 0.000000e+00  
 4.255319e-02 0.000000e+00 0.000000e+00  
 6.382979e-02 0.000000e+00 0.000000e+00  
 8.510638e-02 0.000000e+00 0.000000e+00  
 1.063830e-01 0.000000e+00 0.000000e+00  
 1.276596e-01 0.000000e+00 0.000000e+00  
 1.489362e-01 0.000000e+00 0.000000e+00  
 1.702128e-01 0.000000e+00 0.000000e+00  
 1.914894e-01 0.000000e+00 0.000000e+00  
 2.127660e-01 0.000000e+00 0.000000e+00  
 2.340426e-01 0.000000e+00 0.000000e+00  
 2.553191e-01 0.000000e+00 0.000000e+00  
 2.765957e-01 0.000000e+00 0.000000e+00  
 2.978723e-01 0.000000e+00 0.000000e+00  
 3.191489e-01 0.000000e+00 0.000000e+00  
 3.404255e-01 0.000000e+00 0.000000e+00  
 3.617021e-01 0.000000e+00 0.000000e+00  
 3.829787e-01 0.000000e+00 0.000000e+00  
 4.042553e-01 0.000000e+00 0.000000e+00  
 4.255319e-01 0.000000e+00 0.000000e+00  
 4.468085e-01 0.000000e+00 0.000000e+00  
 4.680851e-01 0.000000e+00 0.000000e+00  
 4.893617e-01 0.000000e+00 0.000000e+00  
 5.106383e-01 0.000000e+00 0.000000e+00  
 5.319149e-01 0.000000e+00 0.000000e+00  
 5.531915e-01 0.000000e+00 0.000000e+00  
 5.744681e-01 0.000000e+00 0.000000e+00  
 5.957447e-01 0.000000e+00 0.000000e+00  
 6.170213e-01 0.000000e+00 0.000000e+00  
 6.382979e-01 0.000000e+00 0.000000e+00  
 6.595745e-01 0.000000e+00 0.000000e+00  
 6.808511e-01 0.000000e+00 0.000000e+00  
 7.021277e-01 0.000000e+00 0.000000e+00  
 7.234043e-01 0.000000e+00 0.000000e+00  
 7.446809e-01 0.000000e+00 0.000000e+00  
 7.659574e-01 0.000000e+00 0.000000e+00  
 7.872340e-01 0.000000e+00 0.000000e+00  
 8.085106e-01 0.000000e+00 0.000000e+00  
 8.297872e-01 0.000000e+00 0.000000e+00  
 8.510638e-01 0.000000e+00 0.000000e+00  
 8.723404e-01 0.000000e+00 0.000000e+00  
 8.936170e-01 0.000000e+00 0.000000e+00  
 9.148936e-01 0.000000e+00 0.000000e+00  
 9.361702e-01 0.000000e+00 0.000000e+00  
 9.574468e-01 0.000000e+00 0.000000e+00  
 9.787234e-01 0.000000e+00 0.000000e+00  
 1.000000e+00 0.000000e+00 0.000000e+00  
 0.000000e+00 1.492537e-02 0.000000e+00  
 2.127660e-02 1.492537e-02 0.000000e+00  
 4.255319e-02 1.492537e-02 0.000000e+00  
 6.382979e-02 1.492537e-02 0.000000e+00  
 8.510638e-02 1.492537e-02 0.000000e+00  
 1.063830e-01 1.492537e-02 0.000000e+00  
 1.276596e-01 1.492537e-02 0.000000e+00  
 1.489362e-01 1.492537e-02 0.000000e+00  
 1.702128e-01 1.492537e-02 0.000000e+00  
 1.914894e-01 1.492537e-02 0.000000e+00  
 2.127660e-01 1.492537e-02 0.000000e+00  
 2.340426e-01 1.492537e-02 0.000000e+00  
 2.553191e-01 1.492537e-02 0.000000e+00  
 2.765957e-01 1.492537e-02 0.000000e+00  
 2.978723e-01 1.492537e-02 0.000000e+00  
 3.191489e-01 1.492537e-02 0.000000e+00  
 3.404255e-01 1.492537e-02 0.000000e+00  
 3.617021e-01 1.492537e-02 0.000000e+00  
 3.829787e-01 1.492537e-02 0.000000e+00  
 4.042553e-01 1.492537e-02 0.000000e+00  
 4.255319e-01 1.492537e-02 0.000000e+00  
 4.468085e-01 1.492537e-02 0.000000e+00  
 4.680851e-01 1.492537e-02 0.000000e+00  
 4.893617e-01 1.492537e-02 0.000000e+00  
 5.106383e-01 1.492537e-02 0.000000e+00  
 5.319149e-01 1.492537e-02 0.000000e+00  
 5.531915e-01 1.492537e-02 0.000000e+00  
 5.744681e-01 1.492537e-02 0.000000e+00  
 5.957447e-01 1.492537e-02 0.000000e+00  
 6.170213e-01 1.492537e-02 0.000000e+00  
 6.382979e-01 1.492537e-02 0.000000e+00  
 6.595745e-01 1.492537e-02 0.000000e+00  
 6.808511e-01 1.492537e-02 0.000000e+00  
 7.021277e-01 1.492537e-02 0.000000e+00  
 7.234043e-01 1.492537e-02 0.000000e+00  
 7.446809e-01 1.492537e-02 0.000000e+00  
 7.659574e-01 1.492537e-02 0.000000e+00  
 7.872340e-01 1.492537e-02 0.000000e+00  
 8.085106e-01 1.492537e-02 0.000000e+00  
 8.297872e-01 1.492537e-02 0.000000e+00  
 8.510638e-01 1.492537e-02 0.000000e+00  
 8.723404e-01 1.492537e-02 0.000000e+00  
 8.936170e-01 1.492537e-02 0.000000e+00  
 9.148936e-01 1.492537e-02 0.000000e+00  
 9.361702e-01 1.492537e-02 0.000000e+00  
 9.574468e-01 1.492537e-02 0.000000e+00  
 9.787234e-01 1.492537e-02 0.000000e+00  
 1.000000e+00 1.492537e-02 0.000000e+00  
 0.000000e+00 2.985075e-02 0.000000e+00  
 2.127660e-02 2.985075e-02 0.000000e+00  
 4.255319e-02 2.985075e-02 0.000000e+00  
 6.382979e-02 2.985075e-02 0.000000e+00  
 8.510638e-02 2.985075e-02 0.000000e+00  
 1.063830e-01 2.985075e-02 0.000000e+00  
 1.276596e-01 2.985075e-02 0.000000e+00  
 1.489362e-01 2.985075e-02 0.000000e+00  
 1.702128e-01 2.985075e-02 0.000000e+00  
 1.914894e-01 2.985075e-02 0.000000e+00  
 2.127660e-01 2.985075e-02 0.000000e+00  
 2.340426e-01 2.985075e-02 0.000000e+00  
 2.553191e-01 2.985075e-02 0.000000e+00  
 2.765957e-01 2.985075e-02 0.000000e+00  
 2.978723e-01 2.985075e-02 0.000000e+00  
 3.191489e-01 2.985075e-02 0.000000e+00  
 3.404255e-01 2.985075e-02 0.000000e+00  
 3.617021e-01 2.985075e-02 0.000000e+00  
 3.829787e-01 2.985075e-02 0.000000e+00  
 4.042553e-01 2.985075e-02 0.000000e+00  
 4.255319e-01 2.985075e-02 0.000000e+00  
 4.468085e-01 2.985075e-02 0.000000e+00  
 4.680851e-01 2.985075e-02 0.000000e+00  
 4.893617e-01 2.985075e-02 0.000000e+00  
 5.106383e-01 2.985075e-02 0.000000e+00  
 5.319149e-01 2.985075e-02 0.000000e+00  
 5.531915e-01 2.985075e-02 0.000000e+00  
 5.744681e-01 2.985075e-02 0.000000e+00  
 5.957447e-01 2.985075e-02 0.000000e+00  
 6.170213e-01 2.985075e-02 0.000000e+00  
 6.382979e-01 2.985075e-02 0.000000e+00  
 6.595745e-01 2.985075e-02 0.000000e+00  
 6.808511e-01 2.985075e-02 0.000000e+00  
 7.021277e-01 2.985075e-02 0.000000e+00  
 7.234043e-01 2.985075e-02 0.000000e+00  
 7.446809e-01 2.985075e-02 0.000000e+00  
 7.659574e-01 2.985075e-02 0.000000e+00  
 7.872340e-01 2.985075e-02 0.000000e+00  
 8.085106e-01 2.985075e-02 0.000000e+00  
 8.297872e-01 2.985075e-02 0.000000e+00  
 8.510638e-01 2.985075e-02 0.000000e+00  
 8.723404e-01 2.985075e-02 0.000000e+00  
 8.936170e-01 2.985075e-02 0.000000e+00  
 9.148936e-01 2.985075e-02 0.000000e+00  
 9.361702e-01 2.985075e-02 0.000000e+00  
 9.574468e-01 2.985075e-02 0.000000e+00  
 9.787234e-01 2.985075e-02 0.000000e+00  
 1.000000e+00 2.985075e-02 0.000000e+00  
 0.000000e+00 4.477612e-02 0.000000e+00  
 2.127660e-02 4.477612e-02 0.000000e+00  
 4.255319e-02 4.477612e-02 0.000000e+00  
 6.382979e-02 4.477612e-02 0.000000e+00  
 8.510638e-02 4.477612e-02 0.000000e+00  
 1.063830e-01 4.477612e-02 0.000000e+00  
 1.276596e-01 4.477612e-02 0.000000e+00  
 1.489362e-01 4.477612e-02 0.000000e+00  
 1.702128e-01 4.477612e-02 0.000000e+00  
 1.914894e-01 4.477612e-02 0.000000e+00  
 2.127660e-01 4.477612e-02 0.000000e+00  
 2.340426e-01 4.477612e-02 0.000000e+00  
 2.553191e-01 4.477612e-02 0.000000e+00  
 2.765957e-01 4.477612e-02 0.000000e+00  
 2.978723e-01 4.477612e-02 0.000000e+00  
 3.191489e-01 4.477612e-02 0.000000e+00  
 3.404255e-01 4.477612e-02 0.000000e+00  
 3.617021e-01 4.477612e-02 0.000000e+00  
 3.829787e-01 4.477612e-02 0.000000e+00  
 4.042553e-01 4.477612e-02 0.000000e+00  
 4.255319e-01 4.477612e-02 0.000000e+00  
 4.468085e-01 4.477612e-02 0.000000e+00  
 4.680851e-01 4.477612e-02 0.000000e+00  
 4.893617e-01 4.477612e-02 0.000000e+00  
 5.106383e-01 4.477612e-02 0.000000e+00  
 5.319149e-01 4.477612e-02 0.000000e+00  
 5.531915e-01 4.477612e-02 0.000000e+00  
 5.744681e-01 4.477612e-02 0.000000e+00  
 5.957447e-01 4.477612e-02 0.000000e+00  
 6.170213e-01 4.477612e-02 0.000000e+00  
 6.382979e-01 4.477612e-02 0.000000e+00  
 6.595745e-01 4.477612e-02 0.000000e+00  
 6.808511e-01 4.477612e-02 0.000000e+00  
 7.021277e-01 4.477612e-02 0.000000e+00  
 7.234043e-01 4.477612e-02 0.000000e+00  
 7.446809e-01 4.477612e-02 0.000000e+00  
 7.659574e-01 4.477612e-02 0.000000e+00  
 7.872340e-01 4.477612e-02 0.000000e+00  
 8.085106e-01 4.477612e-02 0.000000e+00  
 8.297872e-01 4.477612e-02 0.000000e+00  
 8.510638e-01 4.477612e-02 0.000000e+00  
 8.723404e-01 4.477612e-02 0.000000e+00  
 8.936170e-01 4.477612e-02 0.000000e+00  
 9.148936e-01 4.477612e-02 0.000000e+00  
 9.361702e-01 4.477612e-02 0.000000e+00  
 9.574468e-01 4.477612e-02 0.000000e+00  
 9.787234e-01 4.477612e-02 0.000000e+00  
 1.000000e+00 4.477612e-02 0.000000e+00  
 0.000000e+00 5.970149e-02 0.000000e+00  
 2.127660e-02 5.970149e-02 0.000000e+00  
 4.255319e-02 5.970149e-02 0.000000e+00  
 6.382979e-02 5.970149e-02 0.000000e+00  
 8.510638e-02 5.970149e-02 0.000000e+00  
 1.063830e-01 5.970149e-02 0.000000e+00  
 1.276596e-01 5.970149e-02 0.000000e+00  
 1.489362e-01 5.970149e-02 0.000000e+00  
 1.702128e-01 5.970149e-02 0.000000e+00  
 1.914894e-01 5.970149e-02 0.000000e+00  
 2.127660e-01 5.970149e-02 0.000000e+00  
 2.340426e-01 5.970149e-02 0.000000e+00  
 2.553191e-01 5.970149e-02 0.000000e+00  
 2.765957e-01 5.970149e-02 0.000000e+00  
 2.978723e-01 5.970149e-02 0.000000e+00  
 3.191489e-01 5.970149e-02 0.000000e+00  
 3.404255e-01 5.970149e-02 0.000000e+00  
 3.617021e-01 5.970149e-02 0.000000e+00  
 3.829787e-01 5.970149e-02 0.000000e+00  
 4.042553e-01 5.970149e-02 0.000000e+00  
 4.255319e-01 5.970149e-02 0.000000e+00  
 4.468085e-01 5.970149e-02 0.000000e+00  
 4.680851e-01 5.970149e-02 0.000000e+00  
 4.893617e-01 5.970149e-02 0.000000e+00  
 5.106383e-01 5.970149e-02 0.000000e+00  
 5.319149e-01 5.970149e-02 0.000000e+00  
 5.531915e-01 5.970149e-02 0.000000e+00  
 5.744681e-01 5.970149e-02 0.000000e+00  
 5.957447e-01 5.970149e-02 0.000000e+00  
 6.170213e-01 5.970149e-02 0.000000e+00  
 6.382979e-01 5.970149e-02 0.000000e+00  
 6.595745e-01 5.970149e-02 0.000000e+00  
 6.808511e-01 5.970149e-02 0.000000e+00  
 7.021277e-01 5.970149e-02 0.000000e+00  
 7.234043e-01 5.970149e-02 0.000000e+00  
 7.446809e-01 5.970149e-02 0.000000e+00  
 7.659574e-01 5.970149e-02 0.000000e+00  
 7.872340e-01 5.970149e-02 0.000000e+00  
 8.085106e-01 5.970149e-02 0.000000e+00  
 8.297872e-01 5.970149e-02 0.000000e+00  
 8.510638e-01 5.970149e-02 0.000000e+00  
 8.723404e-01 5.970149e-02 0.000000e+00  
 8.936170e-01 5.970149e-02 0.000000e+00  
 9.148936e-01 5.970149e-02 0.000000e+00  
[...]
 POINT_DATA 3264 
 SCALARS Field float 1
 LOOKUP_TABLE default
0.000000e+00  
 0.000000e+00  
 0.000000e+00  
 0.000000e+00  
 0.000000e+00  
 0.000000e+00  
 0.000000e+00  
 0.000000e+00  
 0.000000e+00  
 0.000000e+00  
 0.000000e+00  
 0.000000e+00  
 0.000000e+00  
 0.000000e+00  
 0.000000e+00  
 0.000000e+00  
 0.000000e+00  
 0.000000e+00  
 0.000000e+00  
 0.000000e+00  
 0.000000e+00  
 0.000000e+00  
 0.000000e+00  
 0.000000e+00  
 0.000000e+00  
 0.000000e+00  
 0.000000e+00  
 0.000000e+00  
 0.000000e+00  
 0.000000e+00  
 0.000000e+00  
 0.000000e+00  
 0.000000e+00  
 0.000000e+00  
 0.000000e+00  
 0.000000e+00  
 0.000000e+00  
 0.000000e+00  
 0.000000e+00  
 0.000000e+00  
 0.000000e+00  
 0.000000e+00  
 0.000000e+00  
 0.000000e+00  
 0.000000e+00  
 0.000000e+00  
 0.000000e+00  
 0.000000e+00  
 0.000000e+00  
 4.894756e-03  
 9.577551e-03  
 1.404786e-02  
 1.830553e-02  
 2.235047e-02  
 2.618263e-02  
 2.980198e-02  
 3.320848e-02  
 3.640214e-02  
 3.938292e-02  
 4.215082e-02  
 4.470583e-02  
 4.704794e-02  
 4.917715e-02  
 5.109345e-02  
 5.279684e-02  
 5.428731e-02  
 5.556486e-02  
 5.662949e-02  
 5.748120e-02  
 5.811998e-02  
 5.854583e-02  
 5.875876e-02  
 5.875876e-02  
 5.854583e-02  
 5.811998e-02  
 5.748120e-02  
 5.662949e-02  
 5.556486e-02  
 5.428731e-02  
 5.279684e-02  
 5.109345e-02  
 4.917715e-02  
 4.704794e-02  
 4.470583e-02  
 4.215082e-02  
 3.938292e-02  
 3.640214e-02  
 3.320848e-02  
 2.980198e-02  
 2.618263e-02  
 2.235047e-02  
 1.830553e-02  
 1.404786e-02  
 9.577551e-03  
 4.894756e-03  
 0.000000e+00  
 0.000000e+00  
 9.641814e-03  
 1.886557e-02  
 2.767073e-02  
 3.605702e-02  
 4.402430e-02  
 5.157246e-02  
 5.870144e-02  
 6.541120e-02  
 7.170170e-02  
 7.757291e-02  
 8.302481e-02  
 8.805739e-02  
 9.267062e-02  
 9.686450e-02  
 1.006390e-01  
 1.039942e-01  
 1.069299e-01  
 1.094463e-01  
 1.115433e-01  
 1.132209e-01  
 1.144791e-01  
 1.153179e-01  
 1.157373e-01  
 1.157373e-01  
 1.153179e-01  
 1.144791e-01  
 1.132209e-01  
 1.115433e-01  
 1.094463e-01  
 1.069299e-01  
 1.039942e-01  
 1.006390e-01  
 9.686450e-02  
 9.267062e-02  
 8.805739e-02  
 8.302481e-02  
 7.757291e-02  
 7.170170e-02  
 6.541120e-02  
 5.870144e-02  
 5.157246e-02  
 4.402430e-02  
 3.605702e-02  
 2.767073e-02  
 1.886557e-02  
 9.641814e-03  
 0.000000e+00  
 0.000000e+00  
 1.424088e-02  
 2.786386e-02  
 4.086845e-02  
 5.325435e-02  
 6.502138e-02  
 7.616940e-02  
 8.669832e-02  
 9.660808e-02  
 1.058986e-01  
 1.145699e-01  
 1.226219e-01  
 1.300546e-01  
 1.368680e-01  
 1.430620e-01  
 1.486367e-01  
 1.535919e-01  
 1.579278e-01  
 1.616443e-01  
 1.647414e-01  
 1.672191e-01  
 1.690773e-01  
 1.703162e-01  
 1.709356e-01  
 1.709356e-01  
 1.703162e-01  
 1.690773e-01  
 1.672191e-01  
 1.647414e-01  
 1.616443e-01  
 1.579278e-01  
 1.535919e-01  
 1.486367e-01  
 1.430620e-01  
 1.368680e-01  
 1.300546e-01  
 1.226219e-01  
 1.145699e-01  
 1.058986e-01  
 9.660808e-02  
 8.669832e-02  
 7.616940e-02  
 6.502138e-02  
 5.325435e-02  
 4.086845e-02  
 2.786386e-02  
 1.424088e-02  
 0.000000e+00  
 0.000000e+00  
 1.869183e-02  
 3.657226e-02  
 5.364089e-02  
 6.989742e-02  
 8.534163e-02  
 9.997338e-02  
 1.137926e-01  
 1.267991e-01  
 1.389929e-01  
 1.503739e-01  
 1.609421e-01  
 1.706975e-01  
 1.796400e-01  
 1.877697e-01  
 1.950864e-01  
 2.015901e-01  
 2.072810e-01  
 2.121588e-01  
 2.162237e-01  
 2.194757e-01  
 2.219146e-01  
 2.235406e-01  
 2.243536e-01  
 2.243536e-01  
 2.235406e-01  
 2.219146e-01  
 2.194757e-01  
 2.162237e-01  
 2.121588e-01  
 2.072810e-01  
 2.015901e-01  
 1.950864e-01  
 1.877697e-01  
 1.796400e-01  
 1.706975e-01  
 1.609421e-01  
 1.503739e-01  
 1.389929e-01  
 1.267991e-01  
 1.137926e-01  
 9.997338e-02  
 8.534163e-02  
 6.989742e-02  
 5.364089e-02  
 3.657226e-02  
 1.869183e-02  
 0.000000e+00  
 0.000000e+00  
 2.299458e-02  
 4.499069e-02  
 6.598796e-02  
 8.598612e-02  
 1.049850e-01  
 1.229843e-01  
 1.399841e-01  
 1.559841e-01  
 1.709844e-01  
 1.849848e-01  
 1.979854e-01  
 2.099860e-01  
 2.209867e-01  
 2.309874e-01  
 2.399881e-01  
 2.479887e-01  
 2.549893e-01  
 2.609899e-01  
 2.659903e-01  
 2.699907e-01  
 2.729910e-01  
 2.749912e-01  
 2.759913e-01  
 2.759913e-01  
 2.749912e-01  
 2.729910e-01  
 2.699907e-01  
 2.659903e-01  
 2.609899e-01  
 2.549893e-01  
 2.479887e-01  
 2.399881e-01  
 2.309874e-01  
 2.209867e-01  
 2.099860e-01  
 1.979854e-01  
 1.849848e-01  
 1.709844e-01  
 1.559841e-01  
 1.399841e-01  
 1.229843e-01  
 1.049850e-01  
 8.598612e-02  
 6.598796e-02  
 4.499069e-02  
 2.299458e-02  
 0.000000e+00  
 0.000000e+00  
 2.714909e-02  
 5.311905e-02  
 7.790957e-02  
 1.015204e-01  
 1.239513e-01  
 1.452022e-01  
 1.652728e-01  
 1.841632e-01  
 2.018731e-01  
 2.184026e-01  
 2.337517e-01  
 2.479201e-01  
 2.609080e-01  
 2.727152e-01  
 2.833418e-01  
 2.927877e-01  
 3.010528e-01  
 3.081373e-01  
 3.140411e-01  
 3.187641e-01  
 3.223064e-01  
 3.246679e-01  
 3.258487e-01  
 3.258487e-01  
 3.246679e-01  
 3.223064e-01  
 3.187641e-01  
 3.140411e-01  
 3.081373e-01  
 3.010528e-01  
 2.927877e-01  
 2.833418e-01  
 2.727152e-01  
 2.609080e-01  
 2.479201e-01  
 2.337517e-01  
 2.184026e-01  
 2.018731e-01  
 1.841632e-01  
 1.652728e-01  
 1.452022e-01  
 1.239513e-01  
 1.015204e-01  
 7.790957e-02  
 5.311905e-02  
 2.714909e-02  
 0.000000e+00  
 0.000000e+00  
 3.115533e-02  
 6.095730e-02  
 8.940566e-02  
 1.165002e-01  
 1.422406e-01  
 1.666269e-01  
 1.896587e-01  
 2.113362e-01  
 2.316590e-01  
 2.506273e-01  
 2.682409e-01  
 2.844997e-01  
 2.994038e-01  
 3.129530e-01  
 3.251474e-01  
 3.359869e-01  
 3.454715e-01  
 3.536012e-01  
 3.603760e-01  
 3.657959e-01  
 3.698608e-01  
 3.725707e-01  
 3.739257e-01  
 3.739257e-01  
 3.725707e-01  
 3.698608e-01  
 3.657959e-01  
 3.603760e-01  
 3.536012e-01  
 3.454715e-01  
 3.359869e-01  
 3.251474e-01  
 3.129530e-01  
 2.994038e-01  
 2.844997e-01  
 2.682409e-01  
 2.506273e-01  
 2.316590e-01  
 2.113362e-01  
 1.896587e-01  
 1.666269e-01  
 1.422406e-01  
 1.165002e-01  
 8.940566e-02  
 6.095730e-02  
 3.115533e-02  
 0.000000e+00  
 0.000000e+00  
 3.501326e-02  
 6.850540e-02  
 1.004762e-01  
 1.309254e-01  
 1.598528e-01  
 1.872583e-01  
 2.131418e-01  
 2.375030e-01  
 2.603421e-01  
 2.816587e-01  
 3.014530e-01  
 3.197248e-01  
 3.364741e-01  
 3.517008e-01  
 3.654049e-01  
 3.775865e-01  
 3.882453e-01  
 3.973816e-01  
 4.049951e-01  
 4.110860e-01  
 4.156541e-01  
 4.186995e-01  
 4.202223e-01  
 4.202223e-01  
 4.186995e-01  
 4.156541e-01  
 4.110860e-01  
 4.049951e-01  
 3.973816e-01  
 3.882453e-01  
 3.775865e-01  
 3.654049e-01  
 3.517008e-01  
 3.364741e-01  
 3.197248e-01  
 3.014530e-01  
 2.816587e-01  
 2.603421e-01  
 2.375030e-01  
 2.131418e-01  
 1.872583e-01  
 1.598528e-01  
 1.309254e-01  
 1.004762e-01  
 6.850540e-02  
 3.501326e-02  
 0.000000e+00  
 0.000000e+00  
 3.872288e-02  
 7.576331e-02  
 1.111211e-01  
 1.447960e-01  
 1.767879e-01  
 2.070965e-01  
 2.357219e-01  
 2.626638e-01  
 2.879222e-01  
 3.114969e-01  
 3.333880e-01  
 3.535953e-01  
 3.721188e-01  
 3.889585e-01  
 4.041144e-01  
 4.175863e-01  
 4.293742e-01  
 4.394783e-01  
 4.478983e-01  
 4.546344e-01  
 4.596864e-01  
 4.630544e-01  
 4.647385e-01  
 4.647385e-01  
 4.630544e-01  
 4.596864e-01  
 4.546344e-01  
 4.478983e-01  
 4.394783e-01  
 4.293742e-01  
 4.175863e-01  
 4.041144e-01  
 3.889585e-01  
 3.721188e-01  
 3.535953e-01  
 3.333880e-01  
 3.114969e-01  
 2.879222e-01  
 2.626638e-01  
 2.357219e-01  
 2.070965e-01  
 1.767879e-01  
 1.447960e-01  
 1.111211e-01  
 7.576331e-02  
 3.872288e-02  
 0.000000e+00  
 0.000000e+00  
 4.228416e-02  
 8.273101e-02  
 1.213403e-01  
 1.581120e-01  
 1.930457e-01  
 2.261414e-01  
 2.573990e-01  
 2.868183e-01  
 3.143993e-01  
 3.401418e-01  
 3.640458e-01  
 3.861113e-01  
 4.063381e-01  
 4.247262e-01  
 4.412756e-01  
 4.559863e-01  
 4.688582e-01  
 4.798913e-01  
 4.890856e-01  
 4.964410e-01  
 5.019576e-01  
 5.056354e-01  
 5.074742e-01  
 5.074742e-01  
 5.056354e-01  
 5.019576e-01  
 4.964410e-01  
 4.890856e-01  
 4.798913e-01  
 4.688582e-01  
 4.559863e-01  
 4.412756e-01  
 4.247262e-01  
 4.063381e-01  
 3.861113e-01  
 3.640458e-01  
 3.401418e-01  
 3.143993e-01  
 2.868183e-01  
 2.573990e-01  
 2.261414e-01  
 1.930457e-01  
 1.581120e-01  
 1.213403e-01  
 8.273101e-02  
 4.228416e-02  
 0.000000e+00  
 0.000000e+00  
 4.569711e-02  
 8.940847e-02  
 1.311339e-01  
 1.708732e-01  
 2.086263e-01  
 2.443930e-01  
 2.781731e-01  
 3.099667e-01  
 3.397734e-01  
 3.675934e-01  
 3.934265e-01  
 4.172726e-01  
 4.391317e-01  
 4.590038e-01  
 4.768887e-01  
 4.927866e-01  
 5.066972e-01  
 5.186207e-01  
 5.285569e-01  
 5.365060e-01  
 5.424677e-01  
 5.464423e-01  
 5.484295e-01  
 5.484295e-01  
 5.464423e-01  
 5.424677e-01  
 5.365060e-01  
 5.285569e-01  
 5.186207e-01  
 5.066972e-01  
 4.927866e-01  
 4.768887e-01  
 4.590038e-01  
 4.391317e-01  
 4.172726e-01  
 3.934265e-01  
 3.675934e-01  
 3.397734e-01  
 3.099667e-01  
 2.781731e-01  
 2.443930e-01  
 2.086263e-01  
 1.708732e-01  
 1.311339e-01  
 8.940847e-02  
 4.569711e-02  
 0.000000e+00  
 0.000000e+00  
 4.896170e-02  
 9.579569e-02  
 1.405018e-01  
 1.830798e-01  
 2.235297e-01  
 2.618512e-01  
 2.980442e-01  
 3.321087e-01  
 3.640446e-01  
 3.938517e-01  
 4.215299e-01  
 4.470793e-01  
 4.704998e-01  
 4.917912e-01  
 5.109536e-01  
 5.279870e-01  
 5.428912e-01  
 5.556664e-01  
 5.663123e-01  
 5.748291e-01  
 5.812167e-01  
 5.854751e-01  
 5.876043e-01  
 5.876043e-01  
 5.854751e-01  
 5.812167e-01  
 5.748291e-01  
 5.663123e-01  
 5.556664e-01  
 5.428912e-01  
 5.279870e-01  
 5.109536e-01  
 4.917912e-01  
 4.704998e-01  
 4.470793e-01  
 4.215299e-01  
 3.938517e-01  
 3.640446e-01  
 3.321087e-01  
 2.980442e-01  
 2.618512e-01  
 2.235297e-01  
 1.830798e-01  
 1.405018e-01  
 9.579569e-02  
 4.896170e-02  
 0.000000e+00  
 0.000000e+00  
 5.207794e-02  
 1.018926e-01  
 1.494439e-01  
 1.947317e-01  
 2.377557e-01  
 2.785160e-01  
 3.170123e-01  
 3.532445e-01  
 3.872126e-01  
 4.189165e-01  
 4.483561e-01  
 4.755314e-01  
 5.004422e-01  
 5.230885e-01  
 5.434703e-01  
 5.615876e-01  
 5.774402e-01  
 5.910283e-01  
 6.023517e-01  
 6.114105e-01  
 6.182045e-01  
 6.227339e-01  
 6.249986e-01  
 6.249986e-01  
 6.227339e-01  
 6.182045e-01  
 6.114105e-01  
 6.023517e-01  
 5.910283e-01  
 5.774402e-01  
 5.615876e-01  
 5.434703e-01  
 5.230885e-01  
 5.004422e-01  
 4.755314e-01  
 4.483561e-01  
 4.189165e-01  
 3.872126e-01  
 3.532445e-01  
 3.170123e-01  
 2.785160e-01  
 2.377557e-01  
 1.947317e-01  
 1.494439e-01  
 1.018926e-01  
 5.207794e-02  
 0.000000e+00  
 0.000000e+00  
 5.504581e-02  
 1.076993e-01  
 1.579603e-01  
 2.058288e-01  
 2.513045e-01  
 2.943873e-01  
 3.350772e-01  
 3.733740e-01  
 4.092776e-01  
 4.427880e-01  
 4.739050e-01  
 5.026287e-01  
 5.289589e-01  
 5.528956e-01  
 5.744387e-01  
 5.935883e-01  
 6.103442e-01  
 6.247065e-01  
 6.366751e-01  
 6.462500e-01  
 6.534312e-01  
 6.582187e-01  
 6.606124e-01  
 6.606124e-01  
 6.582187e-01  
 6.534312e-01  
 6.462500e-01  
 6.366751e-01  
 6.247065e-01  
 6.103442e-01  
 5.935883e-01  
 5.744387e-01  
 5.528956e-01  
 5.289589e-01  
 5.026287e-01  
 4.739050e-01  
 4.427880e-01  
 4.092776e-01  
 3.733740e-01  
 3.350772e-01  
 2.943873e-01  
 2.513045e-01  
 2.058288e-01  
 1.579603e-01  
 1.076993e-01  
 5.504581e-02  
 0.000000e+00  
 0.000000e+00  
 5.786531e-02  
 1.132157e-01  
 1.660510e-01  
 2.163711e-01  
 2.641759e-01  
 3.094652e-01  
 3.522390e-01  
 3.924971e-01  
 4.302395e-01  
 4.654660e-01  
 4.981766e-01  
 5.283713e-01  
 5.560499e-01  
 5.812125e-01  
 6.038589e-01  
 6.239891e-01  
 6.416031e-01  
 6.567009e-01  
 6.692825e-01  
 6.793477e-01  
 6.868967e-01  
 6.919293e-01  
 6.944456e-01  
 6.944456e-01  
 6.919293e-01  
 6.868967e-01  
 6.793477e-01  
 6.692825e-01  
 6.567009e-01  
 6.416031e-01  
 6.239891e-01  
 6.038589e-01  
 5.812125e-01  
 5.560499e-01  
 5.283713e-01  
 4.981766e-01  
 4.654660e-01  
 4.302395e-01  
 3.924971e-01  
 3.522390e-01  
 3.094652e-01  
 2.641759e-01  
 2.163711e-01  
 1.660510e-01  
 1.132157e-01  
 5.786531e-02  
 0.000000e+00  
 0.000000e+00  
 6.053644e-02  
 1.184418e-01  
 1.737159e-01  
 2.263587e-01  
 2.763699e-01  
 3.237496e-01  
 3.684976e-01  
 4.106139e-01  
 4.500982e-01  
 4.869506e-01  
 5.211709e-01  
 5.527592e-01  
 5.817152e-01  
 6.080391e-01  
 6.317307e-01  
 6.527900e-01  
 6.712170e-01  
 6.870116e-01  
 7.001738e-01  
 7.107035e-01  
 7.186009e-01  
 7.238658e-01  
 7.264983e-01  
 7.264983e-01  
 7.238658e-01  
 7.186009e-01  
 7.107035e-01  
 7.001738e-01  
 6.870116e-01  
 6.712170e-01  
 6.527900e-01  
 6.317307e-01  
 6.080391e-01  
 5.817152e-01  
 5.527592e-01  
 5.211709e-01  
 4.869506e-01  
 4.500982e-01  
 4.106139e-01  
 3.684976e-01  
 3.237496e-01  
 2.763699e-01  
 2.263587e-01  
 1.737159e-01  
 1.184418e-01  
 6.053644e-02  
 0.000000e+00  
 0.000000e+00  
 6.305919e-02  
 1.233776e-01  
 1.809550e-01  
 2.357914e-01  
 2.878866e-01  
 3.372406e-01  
 3.838531e-01  
 4.277242e-01  
 4.688538e-01  
 5.072417e-01  
 5.428878e-01  
 5.757922e-01  
 6.059548e-01  
 6.333755e-01  
 6.580542e-01  
 6.799910e-01  
 6.991857e-01  
 7.156384e-01  
 7.293490e-01  
 7.403175e-01  
 7.485439e-01  
 7.540282e-01  
 7.567703e-01  
 7.567703e-01  
 7.540282e-01  
 7.485439e-01  
 7.403175e-01  
 7.293490e-01  
 7.156384e-01  
 6.991857e-01  
 6.799910e-01  
 6.580542e-01  
 6.333755e-01  
 6.059548e-01  
 5.757922e-01  
 5.428878e-01  
 5.072417e-01  
 4.688538e-01  
 4.277242e-01  
 3.838531e-01  
 3.372406e-01  
 2.878866e-01  
 2.357914e-01  
 1.809550e-01  
 1.233776e-01  
 6.305919e-02  
 0.000000e+00  
 0.000000e+00  
 6.543355e-02  
 1.280230e-01  
 1.877683e-01  
 2.446693e-01  
 2.987259e-01  
 3.499380e-01  
 3.983054e-01  
 4.438282e-01  
 4.865062e-01  
 5.263393e-01  
 5.633274e-01  
 5.974705e-01  
 6.287686e-01  
 6.572216e-01  
 6.828294e-01  
 7.055920e-01  
 7.255093e-01  
 7.425814e-01  
 7.568081e-01  
 7.681895e-01  
 7.767256e-01  
 7.824164e-01  
 7.852617e-01  
 7.852617e-01  
 7.824164e-01  
 7.767256e-01  
 7.681895e-01  
 7.568081e-01  
 7.425814e-01  
 7.255093e-01  
 7.055920e-01  
 6.828294e-01  
 6.572216e-01  
 6.287686e-01  
 5.974705e-01  
 5.633274e-01  
 5.263393e-01  
 4.865062e-01  
 4.438282e-01  
 3.983054e-01  
 3.499380e-01  
 2.987259e-01  
 2.446693e-01  
 1.877683e-01  
 1.280230e-01  
 6.543355e-02  
 0.000000e+00  
 0.000000e+00  
 6.765953e-02  
 1.323782e-01  
 1.941559e-01  
 2.529924e-01  
 3.088878e-01  
 3.618419e-01  
 4.118545e-01  
 4.589257e-01  
 5.030554e-01  
 5.442433e-01  
 5.824896e-01  
 6.177940e-01  
 6.501567e-01  
 6.795774e-01  
 7.060562e-01  
 7.295930e-01  
 7.501878e-01  
 7.678405e-01  
 7.825511e-01  
 7.943197e-01  
 8.031461e-01  
 8.090304e-01  
 8.119725e-01  
 8.119725e-01  
 8.090304e-01  
 8.031461e-01  
 7.943197e-01  
 7.825511e-01  
 7.678405e-01  
 7.501878e-01  
 7.295930e-01  
 7.060562e-01  
 6.795774e-01  
 6.501567e-01  
 6.177940e-01  
 5.824896e-01  
 5.442433e-01  
 5.030554e-01  
 4.589257e-01  
 4.118545e-01  
 3.618419e-01  
 3.088878e-01  
 2.529924e-01  
 1.941559e-01  
 1.323782e-01  
 6.765953e-02  
 0.000000e+00  
 0.000000e+00  
 6.973712e-02  
 1.364430e-01  
 2.001176e-01  
 2.607607e-01  
 3.183723e-01  
 3.729522e-01  
 4.245004e-01  
 4.730168e-01  
 5.185013e-01  
 5.609539e-01  
 6.003743e-01  
 6.367627e-01  
 6.701189e-01  
 7.004429e-01  
 7.277346e-01  
 7.519940e-01  
 7.732211e-01  
 7.914158e-01  
 8.065780e-01  
 8.187079e-01  
 8.278053e-01  
 8.338702e-01  
 8.369027e-01  
 8.369027e-01  
 8.338702e-01  
 8.278053e-01  
 8.187079e-01  
 8.065780e-01  
 7.914158e-01  
 7.732211e-01  
 7.519940e-01  
 7.277346e-01  
 7.004429e-01  
 6.701189e-01  
 6.367627e-01  
 6.003743e-01  
 5.609539e-01  
 5.185013e-01  
 4.730168e-01  
 4.245004e-01  
 3.729522e-01  
 3.183723e-01  
 2.607607e-01  
 2.001176e-01  
 1.364430e-01  
 6.973712e-02  
 0.000000e+00  
 0.000000e+00  
 7.166632e-02  
 1.402175e-01  
 2.056535e-01  
 2.679741e-01  
 3.271793e-01  
 3.832690e-01  
 4.362431e-01  
 4.861015e-01  
 5.328441e-01  
 5.764708e-01  
 6.169817e-01  
 6.543765e-01  
 6.886554e-01  
 7.198181e-01  
 7.478647e-01  
 7.727950e-01  
 7.946092e-01  
 8.133071e-01  
 8.288888e-01  
 8.413541e-01  
 8.507032e-01  
 8.569358e-01  
 8.600522e-01  
 8.600522e-01  
 8.569358e-01  
 8.507032e-01  
 8.413541e-01  
 8.288888e-01  
 8.133071e-01  
 7.946092e-01  
 7.727950e-01  
 7.478647e-01  
 7.198181e-01  
 6.886554e-01  
 6.543765e-01  
 6.169817e-01  
 5.764708e-01  
 5.328441e-01  
 4.861015e-01  
 4.362431e-01  
 3.832690e-01  
 3.271793e-01  
 2.679741e-01  
 2.056535e-01  
 1.402175e-01  
 7.166632e-02  
 0.000000e+00  
 0.000000e+00  
 7.344713e-02  
 1.437017e-01  
 2.107636e-01  
 2.746327e-01  
 3.353090e-01  
 3.927923e-01  
 4.470825e-01  
 4.981797e-01  
 5.460836e-01  
 5.907943e-01  
 6.323116e-01  
 6.706355e-01  
 7.057660e-01  
 7.377029e-01  
 7.664463e-01  
 7.919961e-01  
 8.143522e-01  
 8.335146e-01  
 8.494834e-01  
 8.622584e-01  
 8.718397e-01  
 8.782272e-01  
 8.814210e-01  
 8.814210e-01  
 8.782272e-01  
 8.718397e-01  
 8.622584e-01  
 8.494834e-01  
 8.335146e-01  
 8.143522e-01  
 7.919961e-01  
 7.664463e-01  
 7.377029e-01  
 7.057660e-01  
 6.706355e-01  
 6.323116e-01  
 5.907943e-01  
 5.460836e-01  
 4.981797e-01  
 4.470825e-01  
 3.927923e-01  
 3.353090e-01  
 2.746327e-01  
 2.107636e-01  
 1.437017e-01  
 7.344713e-02  
 0.000000e+00  
 0.000000e+00  
 7.507954e-02  
 1.468955e-01  
 2.154478e-01  
 2.807364e-01  
 3.427611e-01  
 4.015219e-01  
 4.570187e-01  
 5.092514e-01  
 5.582199e-01  
 6.039241e-01  
 6.463641e-01  
 6.855396e-01  
 7.214507e-01  
 7.540974e-01  
 7.834795e-01  
 8.095970e-01  
 8.324499e-01  
 8.520382e-01  
 8.683618e-01  
 8.814207e-01  
 8.912149e-01  
 8.977444e-01  
 9.010091e-01  
 9.010091e-01  
 8.977444e-01  
 8.912149e-01  
 8.814207e-01  
 8.683618e-01  
 8.520382e-01  
 8.324499e-01  
 8.095970e-01  
 7.834795e-01  
 7.540974e-01  
 7.214507e-01  
 6.855396e-01  
 6.463641e-01  
 6.039241e-01  
 5.582199e-01  
 5.092514e-01  
 4.570187e-01  
 4.015219e-01  
 3.427611e-01  
 2.807364e-01  
 2.154478e-01  
 1.468955e-01  
 7.507954e-02  
 0.000000e+00  
 0.000000e+00  
 7.656356e-02  
 1.497990e-01  
 2.197063e-01  
 2.862853e-01  
 3.495359e-01  
 4.094580e-01  
 4.660516e-01  
 5.193166e-01  
 5.692529e-01  
 6.158604e-01  
 6.591391e-01  
 6.990888e-01  
 7.357097e-01  
 7.690015e-01  
 7.989643e-01  
 8.255979e-01  
 8.489025e-01  
 8.688779e-01  
 8.855241e-01  
 8.988411e-01  
 9.088288e-01  
 9.154873e-01  
 9.188166e-01  
 9.188166e-01  
 9.154873e-01  
 9.088288e-01  
 8.988411e-01  
 8.855241e-01  
 8.688779e-01  
 8.489025e-01  
 8.255979e-01  
 7.989643e-01  
 7.690015e-01  
 7.357097e-01  
 6.990888e-01  
 6.591391e-01  
 6.158604e-01  
 5.692529e-01  
 5.193166e-01  
 4.660516e-01  
 4.094580e-01  
 3.495359e-01  
 2.862853e-01  
 2.197063e-01  
 1.497990e-01  
 7.656356e-02  
 0.000000e+00  
 0.000000e+00  
 7.789918e-02  
 1.524122e-01  
 2.235389e-01  
 2.912792e-01  
 3.556331e-01  
 4.166005e-01  
 4.741813e-01  
 5.283753e-01  
 5.791826e-01  
 6.266030e-01  
 6.706366e-01  
 7.112832e-01  
 7.485427e-01  
 7.824152e-01  
 8.129006e-01  
 8.399988e-01  
 8.637098e-01  
 8.840336e-01  
 9.009701e-01  
 9.145194e-01  
 9.246813e-01  
 9.314560e-01  
 9.348433e-01  
 9.348433e-01  
 9.314560e-01  
 9.246813e-01  
 9.145194e-01  
 9.009701e-01  
 8.840336e-01  
 8.637098e-01  
 8.399988e-01  
 8.129006e-01  
 7.824152e-01  
 7.485427e-01  
 7.112832e-01  
 6.706366e-01  
 6.266030e-01  
 5.791826e-01  
 5.283753e-01  
 4.741813e-01  
 4.166005e-01  
 3.556331e-01  
 2.912792e-01  
 2.235389e-01  
 1.524122e-01  