# vtk DataFile Version 1.0 
PolyMesh 
ASCII 
 
DATASET POLYDATA 
 
POINTS 502 float 
1.000000e+00 -6.275300e-12 0.000000e+00  
 9.397129e-01 -4.681200e-12 0.000000e+00  
 1.000000e+00 7.565740e-02 0.000000e+00  
 9.579277e-01 7.780414e-02 0.000000e+00  
 9.320532e-01 5.432883e-02 0.000000e+00  
 8.941708e-01 6.456681e-02 0.000000e+00  
 8.646178e-01 3.980076e-02 0.000000e+00  
 8.644959e-01 -4.718900e-12 0.000000e+00  
 1.000000e+00 1.550885e-01 0.000000e+00  
 9.352616e-01 1.283480e-01 0.000000e+00  
 9.549683e-01 1.539868e-01 0.000000e+00  
 8.940690e-01 1.257403e-01 0.000000e+00  
 8.830542e-01 1.100449e-01 0.000000e+00  
 8.328519e-01 1.059265e-01 0.000000e+00  
 8.227433e-01 6.629651e-02 0.000000e+00  
 7.956652e-01 5.333762e-02 0.000000e+00  
 7.934179e-01 -4.718900e-12 0.000000e+00  
 1.000000e+00 2.285058e-01 0.000000e+00  
 9.316885e-01 1.975910e-01 0.000000e+00  
 9.532736e-01 2.281729e-01 0.000000e+00  
 7.276505e-01 -5.186800e-12 0.000000e+00  
 8.947294e-01 1.969454e-01 0.000000e+00  
 8.758039e-01 1.713850e-01 0.000000e+00  
 8.126625e-01 1.329009e-01 0.000000e+00  
 8.381964e-01 1.718534e-01 0.000000e+00  
 7.914622e-01 1.340305e-01 0.000000e+00  
 7.628852e-01 7.133677e-02 0.000000e+00  
 7.589901e-01 1.032175e-01 0.000000e+00  
 7.264258e-01 4.692584e-02 0.000000e+00  
 1.000000e+00 3.001974e-01 0.000000e+00  
 1.000000e+00 3.705273e-01 0.000000e+00  
 1.000000e+00 4.414596e-01 0.000000e+00  
 1.000000e+00 5.136199e-01 0.000000e+00  
 9.311535e-01 2.680325e-01 0.000000e+00  
 9.510866e-01 2.998680e-01 0.000000e+00  
 8.743945e-01 2.401246e-01 0.000000e+00  
 8.907618e-01 2.666732e-01 0.000000e+00  
 6.578031e-01 -5.067400e-12 0.000000e+00  
 6.904962e-01 6.787044e-02 0.000000e+00  
 6.586072e-01 4.974963e-02 0.000000e+00  
 8.155694e-01 2.102196e-01 0.000000e+00  
 8.297152e-01 2.368097e-01 0.000000e+00  
 7.748200e-01 2.035949e-01 0.000000e+00  
 7.623760e-01 1.777442e-01 0.000000e+00  
 6.927510e-01 1.086359e-01 0.000000e+00  
 7.240814e-01 1.676385e-01 0.000000e+00  
 7.186250e-01 1.227816e-01 0.000000e+00  
 5.906659e-01 -5.085200e-12 0.000000e+00  
 9.304192e-01 3.364883e-01 0.000000e+00  
 9.514018e-01 3.707695e-01 0.000000e+00  
 1.000000e+00 5.868265e-01 0.000000e+00  
 9.306665e-01 4.060492e-01 0.000000e+00  
 9.534312e-01 4.419136e-01 0.000000e+00  
 9.314930e-01 4.773793e-01 0.000000e+00  
 9.554670e-01 5.139084e-01 0.000000e+00  
 9.319666e-01 5.499721e-01 0.000000e+00  
 9.562803e-01 5.864690e-01 0.000000e+00  
 8.714765e-01 3.049560e-01 0.000000e+00  
 8.906574e-01 3.367806e-01 0.000000e+00  
 8.273855e-01 3.049661e-01 0.000000e+00  
 8.108723e-01 2.739098e-01 0.000000e+00  
 5.232523e-01 -5.085200e-12 0.000000e+00  
 6.243822e-01 6.935787e-02 0.000000e+00  
 5.907464e-01 5.102398e-02 0.000000e+00  
 6.578470e-01 1.278431e-01 0.000000e+00  
 6.252460e-01 1.113509e-01 0.000000e+00  
 7.488977e-01 2.428588e-01 0.000000e+00  
 7.613770e-01 2.718440e-01 0.000000e+00  
 7.050355e-01 2.324286e-01 0.000000e+00  
 7.001564e-01 1.865005e-01 0.000000e+00  
 6.597299e-01 1.731880e-01 0.000000e+00  
 5.581172e-01 6.969108e-02 0.000000e+00  
 5.230965e-01 5.027273e-02 0.000000e+00  
 4.551246e-01 -5.050000e-12 0.000000e+00  
 3.866544e-01 -5.031000e-12 0.000000e+00  
 1.000000e+00 6.590675e-01 0.000000e+00  
 1.000000e+00 7.284461e-01 0.000000e+00  
 1.000000e+00 7.950938e-01 0.000000e+00  
 8.943378e-01 4.072266e-01 0.000000e+00  
 8.715287e-01 3.722440e-01 0.000000e+00  
 9.307270e-01 6.243845e-01 0.000000e+00  
 9.532188e-01 6.583600e-01 0.000000e+00  
 8.740279e-01 4.428995e-01 0.000000e+00  
 8.979699e-01 4.783914e-01 0.000000e+00  
 8.765236e-01 5.141953e-01 0.000000e+00  
 9.007539e-01 5.503884e-01 0.000000e+00  
 8.774133e-01 5.862975e-01 0.000000e+00  
 9.023890e-01 6.232351e-01 0.000000e+00  
 8.099856e-01 3.384826e-01 0.000000e+00  
 8.339343e-01 3.744685e-01 0.000000e+00  
 7.449430e-01 3.038746e-01 0.000000e+00  
 7.730923e-01 3.424252e-01 0.000000e+00  
 4.902012e-01 6.959637e-02 0.000000e+00  
 4.550422e-01 4.958745e-02 0.000000e+00  
 7.116193e-01 3.103552e-01 0.000000e+00  
 5.575740e-01 1.107631e-01 0.000000e+00  
 5.934512e-01 1.299419e-01 0.000000e+00  
 6.347128e-01 1.909397e-01 0.000000e+00  
 5.929900e-01 1.706469e-01 0.000000e+00  
 6.803649e-01 2.530618e-01 0.000000e+00  
 6.785511e-01 2.789984e-01 0.000000e+00  
 6.336452e-01 2.264437e-01 0.000000e+00  
 5.262832e-01 1.290498e-01 0.000000e+00  
 4.897928e-01 1.086482e-01 0.000000e+00  
 4.214091e-01 6.951238e-02 0.000000e+00  
 3.866105e-01 4.940745e-02 0.000000e+00  
 3.177031e-01 -5.180900e-12 0.000000e+00  
 3.523921e-01 6.953299e-02 0.000000e+00  
 3.183942e-01 4.949936e-02 0.000000e+00  
 2.507909e-01 -5.180900e-12 0.000000e+00  
 9.574400e-01 8.656749e-01 0.000000e+00  
 1.000000e+00 8.687258e-01 0.000000e+00  
 1.000000e+00 9.328180e-01 0.000000e+00  
 1.000000e+00 1.000000e+00 0.000000e+00  
 9.298869e-01 6.977685e-01 0.000000e+00  
 9.485962e-01 7.280837e-01 0.000000e+00  
 9.307086e-01 7.638315e-01 0.000000e+00  
 9.488836e-01 7.971992e-01 0.000000e+00  
 9.345880e-01 8.234514e-01 0.000000e+00  
 8.146492e-01 4.101595e-01 0.000000e+00  
 8.391024e-01 4.447487e-01 0.000000e+00  
 8.951091e-01 6.952736e-01 0.000000e+00  
 8.727997e-01 6.628370e-01 0.000000e+00  
 8.422938e-01 5.155560e-01 0.000000e+00  
 8.191099e-01 4.812741e-01 0.000000e+00  
 8.221526e-01 5.507566e-01 0.000000e+00  
 8.464121e-01 5.870835e-01 0.000000e+00  
 8.247310e-01 6.205751e-01 0.000000e+00  
 8.497154e-01 6.608591e-01 0.000000e+00  
 7.540258e-01 3.790433e-01 0.000000e+00  
 7.805058e-01 4.127003e-01 0.000000e+00  
 7.226812e-01 3.823573e-01 0.000000e+00  
 6.946816e-01 3.534942e-01 0.000000e+00  
 4.213361e-01 1.080477e-01 0.000000e+00  
 4.573581e-01 1.283467e-01 0.000000e+00  
 6.663864e-01 3.580907e-01 0.000000e+00  
 6.356703e-01 3.048686e-01 0.000000e+00  
 6.342209e-01 3.291540e-01 0.000000e+00  
 5.249342e-01 1.689333e-01 0.000000e+00  
 5.630021e-01 1.903059e-01 0.000000e+00  
 5.624469e-01 2.248363e-01 0.000000e+00  
 6.010517e-01 2.503547e-01 0.000000e+00  
 6.006565e-01 2.757511e-01 0.000000e+00  
 4.940516e-01 1.870338e-01 0.000000e+00  
 4.570882e-01 1.667144e-01 0.000000e+00  
 3.882912e-01 1.282666e-01 0.000000e+00  
 3.523223e-01 1.078811e-01 0.000000e+00  
 2.813637e-01 7.121280e-02 0.000000e+00  
 2.505516e-01 5.285429e-02 0.000000e+00  
 2.833909e-01 1.074040e-01 0.000000e+00  
 3.194843e-01 1.279971e-01 0.000000e+00  
 2.147097e-01 7.004766e-02 0.000000e+00  
 1.847271e-01 5.124468e-02 0.000000e+00  
 1.833419e-01 -5.431200e-12 0.000000e+00  
 1.203142e-01 -5.431100e-12 0.000000e+00  
 6.138300e-02 -4.795800e-12 0.000000e+00  
 -4.914500e-12 -4.795800e-12 0.000000e+00  
 8.939249e-01 8.307222e-01 0.000000e+00  
 9.281363e-01 8.971032e-01 0.000000e+00  
 8.841571e-01 8.735466e-01 0.000000e+00  
 9.316908e-01 9.284623e-01 0.000000e+00  
 9.423871e-01 9.370782e-01 0.000000e+00  
 9.435996e-01 1.000000e+00 0.000000e+00  
 8.670786e-01 7.418985e-01 0.000000e+00  
 8.817491e-01 7.636102e-01 0.000000e+00  
 8.696959e-01 8.061658e-01 0.000000e+00  
 7.823806e-01 4.828988e-01 0.000000e+00  
 7.605047e-01 4.518302e-01 0.000000e+00  
 8.375085e-01 7.364513e-01 0.000000e+00  
 8.171907e-01 6.948096e-01 0.000000e+00  
 7.932181e-01 6.907689e-01 0.000000e+00  
 7.868012e-01 5.528760e-01 0.000000e+00  
 7.635549e-01 5.205613e-01 0.000000e+00  
 7.688100e-01 5.882320e-01 0.000000e+00  
 7.897278e-01 6.220904e-01 0.000000e+00  
 7.731725e-01 6.507716e-01 0.000000e+00  
 7.225974e-01 4.526942e-01 0.000000e+00  
 7.032930e-01 4.262084e-01 0.000000e+00  
 6.611024e-01 4.256380e-01 0.000000e+00  
 6.468952e-01 4.026937e-01 0.000000e+00  
 3.882739e-01 1.664346e-01 0.000000e+00  
 4.251024e-01 1.868791e-01 0.000000e+00  
 6.023045e-01 3.966984e-01 0.000000e+00  
 5.954157e-01 3.528377e-01 0.000000e+00  
 5.642808e-01 3.380791e-01 0.000000e+00  
 5.601190e-01 3.031348e-01 0.000000e+00  
 4.926027e-01 2.288779e-01 0.000000e+00  
 5.258676e-01 2.480620e-01 0.000000e+00  
 5.284555e-01 2.844700e-01 0.000000e+00  
 4.250325e-01 2.235593e-01 0.000000e+00  
 4.616995e-01 2.447051e-01 0.000000e+00  
 3.189952e-01 1.668021e-01 0.000000e+00  
 3.558861e-01 1.867700e-01 0.000000e+00  
 2.913834e-01 1.838337e-01 0.000000e+00  
 2.126538e-01 1.159770e-01 0.000000e+00  
 2.462010e-01 1.333532e-01 0.000000e+00  
 2.514880e-01 1.673255e-01 0.000000e+00  
 1.867927e-01 1.285632e-01 0.000000e+00  
 1.401378e-01 7.415728e-02 0.000000e+00  
 1.426414e-01 1.023318e-01 0.000000e+00  
 1.202923e-01 5.936966e-02 0.000000e+00  
 7.239843e-02 6.955366e-02 0.000000e+00  
 5.794855e-02 5.492487e-02 0.000000e+00  
 -4.914500e-12 6.064779e-02 0.000000e+00  
 8.283681e-01 8.160539e-01 0.000000e+00  
 8.266424e-01 8.670689e-01 0.000000e+00  
 8.601285e-01 8.854327e-01 0.000000e+00  
 8.565240e-01 9.297994e-01 0.000000e+00  
 8.823463e-01 9.480456e-01 0.000000e+00  
 8.827332e-01 1.000000e+00 0.000000e+00  
 8.027643e-01 7.690858e-01 0.000000e+00  
 8.071310e-01 8.012241e-01 0.000000e+00  
 7.279342e-01 5.229897e-01 0.000000e+00  
 7.033067e-01 4.948278e-01 0.000000e+00  
 7.621001e-01 7.474600e-01 0.000000e+00  
 7.600554e-01 7.212628e-01 0.000000e+00  
 7.301514e-01 6.542404e-01 0.000000e+00  
 7.200405e-01 6.971725e-01 0.000000e+00  
 7.094157e-01 5.682882e-01 0.000000e+00  
 7.268234e-01 5.899567e-01 0.000000e+00  
 7.133006e-01 6.344463e-01 0.000000e+00  
 6.427258e-01 4.660497e-01 0.000000e+00  
 6.741053e-01 4.976480e-01 0.000000e+00  
 6.204425e-01 4.705935e-01 0.000000e+00  
 5.820064e-01 4.167809e-01 0.000000e+00  
 5.833122e-01 4.421761e-01 0.000000e+00  
 3.897323e-01 2.464778e-01 0.000000e+00  
 3.562514e-01 2.230900e-01 0.000000e+00  
 5.356617e-01 3.982692e-01 0.000000e+00  
 5.315993e-01 3.629519e-01 0.000000e+00  
 4.934779e-01 3.460837e-01 0.000000e+00  
 4.889078e-01 3.095490e-01 0.000000e+00  
 4.569713e-01 2.914069e-01 0.000000e+00  
 4.317533e-01 3.015804e-01 0.000000e+00  
 3.892995e-01 2.717935e-01 0.000000e+00  
[...]
 POINT_DATA 502 
 SCALARS Field float 1
 LOOKUP_TABLE default
0.000000e+00  
 0.000000e+00  
 0.000000e+00  
 4.612688e-02  
 5.264197e-02  
 9.186339e-02  
 7.214080e-02  
 0.000000e+00  
 0.000000e+00  
 1.087594e-01  
 9.015764e-02  
 1.669247e-01  
 1.625645e-01  
 2.110866e-01  
 1.450282e-01  
 1.324975e-01  
 0.000000e+00  
 0.000000e+00  
 1.617286e-01  
 1.262975e-01  
 0.000000e+00  
 2.384775e-01  
 2.469576e-01  
 2.818349e-01  
 3.079244e-01  
 3.068554e-01  
 1.924962e-01  
 2.712974e-01  
 1.429753e-01  
 0.000000e+00  
 0.000000e+00  
 0.000000e+00  
 0.000000e+00  
 2.015244e-01  
 1.573194e-01  
 3.199497e-01  
 3.047008e-01  
 0.000000e+00  
 2.169264e-01  
 1.712968e-01  
 3.986801e-01  
 4.079668e-01  
 4.517281e-01  
 4.226275e-01  
 3.304460e-01  
 4.459752e-01  
 3.484268e-01  
 0.000000e+00  
 2.316943e-01  
 1.736989e-01  
 0.000000e+00  
 2.495346e-01  
 1.762527e-01  
 2.552508e-01  
 1.710685e-01  
 2.516031e-01  
 1.631403e-01  
 3.790907e-01  
 3.482273e-01  
 4.836387e-01  
 4.863259e-01  
 0.000000e+00  
 2.429036e-01  
 1.886468e-01  
 4.010555e-01  
 3.713848e-01  
 5.510170e-01  
 5.738533e-01  
 5.915778e-01  
 5.085454e-01  
 5.136693e-01  
 2.566019e-01  
 1.918070e-01  
 0.000000e+00  
 0.000000e+00  
 0.000000e+00  
 0.000000e+00  
 0.000000e+00  
 3.650974e-01  
 4.181467e-01  
 2.427650e-01  
 1.613821e-01  
 4.342440e-01  
 3.660242e-01  
 4.321434e-01  
 3.542989e-01  
 4.171414e-01  
 3.312736e-01  
 5.502465e-01  
 5.180739e-01  
 6.412574e-01  
 6.299628e-01  
 2.596899e-01  
 1.881523e-01  
 7.001375e-01  
 3.889767e-01  
 4.360965e-01  
 5.725014e-01  
 5.454597e-01  
 6.568174e-01  
 7.000411e-01  
 6.485000e-01  
 4.479744e-01  
 3.873333e-01  
 2.530808e-01  
 1.793122e-01  
 0.000000e+00  
 2.369679e-01  
 1.642829e-01  
 0.000000e+00  
 7.631158e-02  
 0.000000e+00  
 0.000000e+00  
 0.000000e+00  
 2.208918e-01  
 1.556857e-01  
 1.863031e-01  
 1.266087e-01  
 1.425771e-01  
 5.834000e-01  
 5.327375e-01  
 3.180778e-01  
 3.976000e-01  
 5.304436e-01  
 5.906644e-01  
 5.778248e-01  
 5.041092e-01  
 5.435845e-01  
 4.582288e-01  
 6.969997e-01  
 6.628112e-01  
 7.554439e-01  
 7.739540e-01  
 3.761557e-01  
 4.439006e-01  
 8.160074e-01  
 7.835979e-01  
 8.187823e-01  
 5.593040e-01  
 6.056809e-01  
 6.844004e-01  
 7.189957e-01  
 7.649420e-01  
 6.067304e-01  
 5.507948e-01  
 4.246788e-01  
 3.516643e-01  
 2.149405e-01  
 1.514429e-01  
 3.115679e-01  
 3.880298e-01  
 1.763833e-01  
 1.176137e-01  
 0.000000e+00  
 0.000000e+00  
 0.000000e+00  
 0.000000e+00  
 2.135724e-01  
 9.853900e-02  
 1.811384e-01  
 7.138211e-02  
 5.267125e-02  
 0.000000e+00  
 3.541436e-01  
 3.011899e-01  
 2.828428e-01  
 6.791505e-01  
 7.200307e-01  
 4.219182e-01  
 5.067234e-01  
 5.608776e-01  
 6.626067e-01  
 7.194719e-01  
 6.872147e-01  
 6.245372e-01  
 6.368038e-01  
 7.930988e-01  
 8.142376e-01  
 8.746383e-01  
 8.770581e-01  
 5.266592e-01  
 5.931434e-01  
 9.155326e-01  
 8.777646e-01  
 8.787555e-01  
 8.303618e-01  
 7.045497e-01  
 7.421977e-01  
 8.093461e-01  
 6.771249e-01  
 7.326727e-01  
 4.828774e-01  
 5.562274e-01  
 4.948057e-01  
 2.750125e-01  
 3.430382e-01  
 4.193263e-01  
 2.720772e-01  
 1.349265e-01  
 1.801288e-01  
 9.532578e-02  
 7.149853e-02  
 4.644551e-02  
 0.000000e+00  
 3.412064e-01  
 2.638278e-01  
 1.957666e-01  
 1.292491e-01  
 8.200011e-02  
 0.000000e+00  
 4.488391e-01  
 3.973686e-01  
 7.886066e-01  
 8.332701e-01  
 5.472325e-01  
 5.864188e-01  
 7.127716e-01  
 6.798844e-01  
 8.079476e-01  
 7.673051e-01  
 7.575802e-01  
 9.128598e-01  
 8.765530e-01  
 9.372219e-01  
 9.454909e-01  
 9.573433e-01  
 7.062309e-01  
 6.342409e-01  
 9.505880e-01  
 9.184408e-01  
 9.019019e-01  
 8.516410e-01  
 8.183807e-01  
 8.246363e-01  
 7.520113e-01  
 6.388737e-01  
 5.868105e-01  
 4.354881e-01  
 5.513702e-01  
 3.981058e-01  
 3.282610e-01  
 1.843395e-01  
 2.584584e-01  
 1.231097e-01  
 1.023398e-01  
 0.000000e+00  
 4.176340e-01  
 3.365648e-01  
 2.732537e-01  
 1.758148e-01  
 1.239291e-01  
 0.000000e+00  
 5.513862e-01  
 4.940957e-01  
 8.993915e-01  
 8.631486e-01  
 7.002140e-01  
 6.440494e-01  
 8.164308e-01  
 7.755523e-01  
 8.577556e-01  
 9.355824e-01  
 9.574625e-01  
 9.824052e-01  
 9.873935e-01  
 9.919662e-01  
 9.746845e-01  
 7.029600e-01  
 7.674995e-01  
 9.267309e-01  
 9.674819e-01  
 9.078616e-01  
 8.736157e-01  
 8.279071e-01  
 7.032010e-01  
 5.672362e-01  
 6.407387e-01  
 4.111960e-01  
 4.867981e-01  
 3.307118e-01  
 2.594862e-01  
 1.705002e-01  
 1.177407e-01  
 0.000000e+00  
 4.838622e-01  
 3.909213e-01  
 3.234973e-01  
 2.119464e-01  
 1.547994e-01  
 0.000000e+00  
 5.567213e-01  
 6.456154e-01  
 8.925893e-01  
 9.357611e-01  
 7.933473e-01  
 7.055474e-01  
 8.194937e-01  
 8.803865e-01  
 9.849953e-01  
 9.606606e-01  
 9.972785e-01  
 9.916314e-01  
 9.736393e-01  
 9.917868e-01  
 7.745770e-01  
 8.337516e-01  
 9.564970e-01  
 9.223351e-01  
 8.835634e-01  
 7.661811e-01  
 6.317129e-01  
 6.956291e-01  
 4.867306e-01  
 5.500647e-01  
 3.822734e-01  
 3.146587e-01  
 2.075654e-01  
 1.491126e-01  
 0.000000e+00  
 5.383897e-01  
 4.311921e-01  
 3.610127e-01  
 2.386624e-01  
 1.741666e-01  
 0.000000e+00  
 6.077713e-01  
 6.917736e-01  
 9.444150e-01  
 9.107629e-01  
 7.602640e-01  
 8.661321e-01  
 8.091160e-01  
 9.786949e-01  
 9.517826e-01  
 9.756105e-01  
 9.699771e-01  
 9.420821e-01  
 9.592606e-01  
 8.737485e-01  
 8.189097e-01  
 9.088852e-01  
 7.935674e-01  
 6.705577e-01  
 7.218333e-01  
 5.231802e-01  
 5.825302e-01  
 3.553019e-01  
 4.183445e-01  
 2.321419e-01  
 1.688035e-01  
 0.000000e+00  
 5.776630e-01  
 4.535922e-01  
 3.947784e-01  
 2.553703e-01  
 1.906041e-01  
 0.000000e+00  
 7.303356e-01  
 6.231429e-01  
 8.668132e-01  
 9.227177e-01  
 7.571344e-01  
 8.366825e-01  
 9.131014e-01  
 9.404683e-01  
 9.186692e-01  
 9.144603e-01  
 8.959269e-01  
 8.779925e-01  
 8.300781e-01  
 7.906818e-01  
 6.812704e-01  
 7.211349e-01  
 5.934706e-01  
 5.396269e-01  
 3.715580e-01  
 4.344738e-01  
 2.482008e-01  
 1.812563e-01  
 0.000000e+00  
 5.776992e-01  
 4.545339e-01  
 4.063085e-01  
 2.620533e-01  
 2.012196e-01  
 0.000000e+00  
 6.102324e-01  
 7.032906e-01  
 8.246420e-01  
 8.753628e-01  
 7.184418e-01  
 7.921434e-01  
 8.463350e-01  
 8.649334e-01  
 8.199873e-01  
 8.259411e-01  
 8.061286e-01  
 7.113927e-01  
 6.694924e-01  
 5.915609e-01  
 5.373306e-01  
 4.391723e-01  
 3.744708e-01  
 2.553171e-01  
 1.833878e-01  
 0.000000e+00  
 5.432358e-01  
 4.408877e-01  
 3.927639e-01  
 2.595175e-01  
 1.988838e-01  
 0.000000e+00  
 5.794448e-01  
 6.514662e-01  
 7.769572e-01  
 6.724886e-01  
 7.539255e-01  
 7.382936e-01  
 7.614136e-01  
 6.909484e-01  
 6.983716e-01  
 5.345763e-01  
 5.725646e-01  
 4.302791e-01  
 3.726570e-01  
 2.540882e-01  
 1.828480e-01  
 0.000000e+00  
 5.118210e-01  
 3.697520e-01  
 4.082431e-01  
 2.467171e-01  
 1.891651e-01  
 0.000000e+00  
 6.317545e-01  
 5.255904e-01  
 6.720513e-01  
 6.210410e-01  
 6.313724e-01  
 6.179239e-01  
 5.405187e-01  
 5.279088e-01  
 3.659931e-01  
 4.050575e-01  
 2.428814e-01  
 1.802352e-01  
 0.000000e+00  
 4.620577e-01  
 3.604374e-01  
 3.350819e-01  
 2.233670e-01  
 1.720965e-01  
 0.000000e+00  
 4.619859e-01  
 5.269984e-01  
 5.113257e-01  
 5.437579e-01  
 4.632521e-01  
 4.678584e-01  
 3.395214e-01  
 3.633138e-01  
 2.213515e-01  
 1.703979e-01  
 0.000000e+00  
 3.728518e-01  
 2.842856e-01  
 3.036072e-01  
 1.927161e-01  
 1.473059e-01  
 0.000000e+00  
 3.661893e-01  
 3.970350e-01  
 3.823299e-01  
 3.107137e-01  
 2.822494e-01  
 1.964146e-01  
 1.476431e-01  
 0.000000e+00  
 2.881815e-01  
 2.233657e-01  
 2.265507e-01  
 1.500256e-01  
 1.185442e-01  
 0.000000e+00  
 2.359144e-01  
 2.355473e-01  
 1.505783e-01  
 1.258305e-01  
 0.000000e+00  
 1.507100e-01  
 1.491793e-01  
 1.018176e-01  
 7.740245e-02  
 0.000000e+00  
 1.025361e-01  
 7.874003e-02  
 0.000000e+00  
 4.804957e-02  
 4.786988e-02  
 0.000000e+00  
 0.000000e+00  
 0.000000e+00  
  
 