# vtk DataFile Version 1.0 
PolyMesh 
ASCII 
 
DATASET POLYDATA 
 
POINTS 64 float 
0.000000e+00 0.000000e+00 0.000000e+00  
 3.140000e+00 0.000000e+00 0.000000e+00  
 3.140000e+00 2.000000e+00 0.000000e+00  
 2.120000e+00 2.400000e+00 0.000000e+00  
 1.420000e+00 3.800000e+00 0.000000e+00  
 1.420000e+00 8.300000e+00 0.000000e+00  
 2.340000e+00 8.300000e+00 0.000000e+00  
 2.340000e+00 3.800000e+00 0.000000e+00  
 3.140000e+00 3.300000e+00 0.000000e+00  
 3.140000e+00 1.010000e+01 0.000000e+00  
 0.000000e+00 1.010000e+01 0.000000e+00  
 8.250000e+00 0.000000e+00 0.000000e+00  
 8.250000e+00 3.600000e+00 0.000000e+00  
 6.980000e+00 5.600000e+00 0.000000e+00  
 6.980000e+00 2.000000e+00 0.000000e+00  
 6.090000e+00 2.000000e+00 0.000000e+00  
 6.090000e+00 8.300000e+00 0.000000e+00  
 6.350000e+00 8.300000e+00 0.000000e+00  
 8.250000e+00 5.100000e+00 0.000000e+00  
 8.250000e+00 1.010000e+01 0.000000e+00  
 4.280000e+00 3.800000e+00 0.000000e+00  
 4.280000e+00 8.300000e+00 0.000000e+00  
 5.040000e+00 8.300000e+00 0.000000e+00  
 5.040000e+00 3.800000e+00 0.000000e+00  
 4.520000e+00 2.400000e+00 0.000000e+00  
 1.317000e+01 0.000000e+00 0.000000e+00  
 1.317000e+01 2.920000e+00 0.000000e+00  
 1.219000e+01 2.920000e+00 0.000000e+00  
 1.182000e+01 2.000000e+00 0.000000e+00  
 1.104000e+01 2.000000e+00 0.000000e+00  
 1.282000e+01 8.300000e+00 0.000000e+00  
 1.317000e+01 8.300000e+00 0.000000e+00  
 1.317000e+01 1.010000e+01 0.000000e+00  
 1.009000e+01 8.300000e+00 0.000000e+00  
 1.038000e+01 8.300000e+00 0.000000e+00  
 1.038000e+01 2.000000e+00 0.000000e+00  
 9.550000e+00 2.000000e+00 0.000000e+00  
 9.550000e+00 5.580000e+00 0.000000e+00  
 1.782000e+01 0.000000e+00 0.000000e+00  
 1.782000e+01 2.000000e+00 0.000000e+00  
 1.606000e+01 3.300000e+00 0.000000e+00  
 1.606000e+01 6.300000e+00 0.000000e+00  
 1.782000e+01 8.300000e+00 0.000000e+00  
 1.782000e+01 1.010000e+01 0.000000e+00  
 1.362000e+01 8.300000e+00 0.000000e+00  
 1.527000e+01 2.000000e+00 0.000000e+00  
 1.442000e+01 2.000000e+00 0.000000e+00  
 1.422000e+01 2.920000e+00 0.000000e+00  
 1.252000e+01 3.800000e+00 0.000000e+00  
 1.382000e+01 3.800000e+00 0.000000e+00  
 1.317000e+01 6.600000e+00 0.000000e+00  
 2.052000e+01 0.000000e+00 0.000000e+00  
 2.052000e+01 1.010000e+01 0.000000e+00  
 1.942000e+01 7.300000e+00 0.000000e+00  
 1.882000e+01 6.500000e+00 0.000000e+00  
 1.782000e+01 7.000000e+00 0.000000e+00  
 1.662000e+01 5.100000e+00 0.000000e+00  
 1.732000e+01 3.300000e+00 0.000000e+00  
 1.852000e+01 3.300000e+00 0.000000e+00  
 1.852000e+01 4.500000e+00 0.000000e+00  
 1.782000e+01 4.500000e+00 0.000000e+00  
 1.782000e+01 5.700000e+00 0.000000e+00  
 1.942000e+01 5.700000e+00 0.000000e+00  
 1.942000e+01 2.800000e+00 0.000000e+00  
  
 POLYGONS 12 150 
 11 0  1  2  3  4  5  6  7  8  9  10   
 12 5  4  3  2  24  23  22  21  20  8  7  6   
 18 1  11  12  13  14  15  16  17  18  19  9  8  20  21  22  23  24  2   
 12 15  14  13  12  37  36  35  34  33  18  17  16   
 17 11  25  26  27  28  29  30  31  32  19  18  33  34  35  36  37  12   
 7 29  28  27  48  50  31  30   
 5 27  26  47  49  48   
 3 48  49  50   
 7 46  45  44  31  50  49  47   
 14 25  38  39  40  41  42  43  32  31  44  45  46  47  26   
 15 63  62  61  60  59  58  57  56  55  54  53  42  41  40  39   
 17 38  51  52  43  42  53  54  55  56  57  58  59  60  61  62  63  39   
  
 POINT_DATA 64 
 VECTORS Displacement float 
 0.000000e+00 0.000000e+00 0.000000e+00  
 -8.912778e-02 -4.191479e-02 0.000000e+00  
 -4.658119e-02 -4.200318e-02 0.000000e+00  
 -3.078881e-02 -2.763076e-02 0.000000e+00  
 -1.979270e-02 -1.649804e-02 0.000000e+00  
 2.610234e-02 -1.842807e-02 0.000000e+00  
 3.054903e-02 -3.438281e-02 0.000000e+00  
 -1.725770e-02 -3.281340e-02 0.000000e+00  
 -2.818290e-02 -4.229691e-02 0.000000e+00  
 8.377328e-02 -4.607751e-02 0.000000e+00  
 0.000000e+00 0.000000e+00 0.000000e+00  
 -1.284275e-01 -1.713933e-01 0.000000e+00  
 -3.506128e-02 -1.700660e-01 0.000000e+00  
 1.401555e-02 -1.394826e-01 0.000000e+00  
 -6.896694e-02 -1.382655e-01 0.000000e+00  
 -6.992459e-02 -1.125084e-01 0.000000e+00  
 7.598280e-02 -1.152612e-01 0.000000e+00  
 7.721606e-02 -1.240717e-01 0.000000e+00  
 3.321296e-03 -1.716040e-01 0.000000e+00  
 1.307854e-01 -1.758349e-01 0.000000e+00  
 -2.267159e-02 -7.080676e-02 0.000000e+00  
 5.907416e-02 -7.285314e-02 0.000000e+00  
 6.240330e-02 -8.875077e-02 0.000000e+00  
 -2.084838e-02 -8.589298e-02 0.000000e+00  
 -4.975036e-02 -7.358239e-02 0.000000e+00  
 -1.502989e-01 -3.217792e-01 0.000000e+00  
 -6.064440e-02 -3.193643e-01 0.000000e+00  
 -5.926487e-02 -2.892958e-01 0.000000e+00  
 -8.382950e-02 -2.781621e-01 0.000000e+00  
 -8.365905e-02 -2.531348e-01 0.000000e+00  
 9.513634e-02 -3.104047e-01 0.000000e+00  
 9.826741e-02 -3.216854e-01 0.000000e+00  
 1.548894e-01 -3.266491e-01 0.000000e+00  
 8.956399e-02 -2.290108e-01 0.000000e+00  
 8.866726e-02 -2.358373e-01 0.000000e+00  
 -7.951100e-02 -2.325484e-01 0.000000e+00  
 -7.911908e-02 -2.098859e-01 0.000000e+00  
 1.609933e-02 -2.113854e-01 0.000000e+00  
 -1.553387e-01 -4.707040e-01 0.000000e+00  
 -9.207565e-02 -4.681917e-01 0.000000e+00  
 -5.158195e-02 -4.121502e-01 0.000000e+00  
 4.152320e-02 -4.135775e-01 0.000000e+00  
 1.045508e-01 -4.711160e-01 0.000000e+00  
 1.615842e-01 -4.751532e-01 0.000000e+00  
 1.016041e-01 -3.358360e-01 0.000000e+00  
 -9.136717e-02 -3.857440e-01 0.000000e+00  
 -9.149090e-02 -3.594950e-01 0.000000e+00  
 -6.192697e-02 -3.530468e-01 0.000000e+00  
 -3.450499e-02 -2.990872e-01 0.000000e+00  
 -3.453743e-02 -3.400127e-01 0.000000e+00  
 4.837630e-02 -3.201342e-01 0.000000e+00  
 -1.553051e-01 -5.535804e-01 0.000000e+00  
 1.625515e-01 -5.582384e-01 0.000000e+00  
 7.406675e-02 -5.218509e-01 0.000000e+00  
 4.854841e-02 -5.025537e-01 0.000000e+00  
 6.394722e-02 -4.707731e-01 0.000000e+00  
 4.402367e-03 -4.313405e-01 0.000000e+00  
 -5.156241e-02 -4.530061e-01 0.000000e+00  
 -5.142626e-02 -4.916248e-01 0.000000e+00  
 -1.406730e-02 -4.922107e-01 0.000000e+00  
 -1.420387e-02 -4.698785e-01 0.000000e+00  
 2.368813e-02 -4.703835e-01 0.000000e+00  
 2.401278e-02 -5.209890e-01 0.000000e+00  
 -6.725782e-02 -5.196375e-01 0.000000e+00  
  
 