# vtk DataFile Version 1.0 
PolyMesh 
ASCII 
 
DATASET POLYDATA 
 
POINTS 15 float 
3.750000e+00 1.000000e+00 0.000000e+00  
 4.000000e+00 1.000000e+00 0.000000e+00  
 4.000000e+00 1.500000e+00 0.000000e+00  
 4.100000e+00 1.500000e+00 0.000000e+00  
 4.250000e+00 1.300000e+00 0.000000e+00  
 4.400000e+00 1.300000e+00 0.000000e+00  
 4.550000e+00 1.500000e+00 0.000000e+00  
 4.650000e+00 1.500000e+00 0.000000e+00  
 4.650000e+00 1.000000e+00 0.000000e+00  
 4.900000e+00 1.000000e+00 0.000000e+00  
 4.900000e+00 2.000000e+00 0.000000e+00  
 4.650000e+00 2.000000e+00 0.000000e+00  
 4.325000e+00 1.600000e+00 0.000000e+00  
 4.000000e+00 2.000000e+00 0.000000e+00  
 3.750000e+00 2.000000e+00 0.000000e+00  
  
 POLYGONS 1 16 
 15 0  1  2  3  4  5  6  7  8  9  10  11  12  13  14   
  
 POINT_DATA 15 
 VECTORS Displacement float 
 0.000000e+00 0.000000e+00 0.000000e+00  
 0.000000e+00 0.000000e+00 0.000000e+00  
 1.933712e-02 2.849095e-03 0.000000e+00  
 1.934129e-02 4.103304e-03 0.000000e+00  
 1.314238e-02 1.955811e-03 0.000000e+00  
 1.311960e-02 -1.530845e-03 0.000000e+00  
 1.861024e-02 -3.395026e-03 0.000000e+00  
 1.697410e-02 -2.140817e-03 0.000000e+00  
 0.000000e+00 0.000000e+00 0.000000e+00  
 0.000000e+00 0.000000e+00 0.000000e+00  
 3.100820e-02 -1.068281e-02 0.000000e+00  
 2.866165e-02 -2.156883e-03 0.000000e+00  
 1.711393e-02 4.249664e-04 0.000000e+00  
 3.821972e-02 3.573438e-03 0.000000e+00  
 3.942717e-02 1.209937e-02 0.000000e+00  
  
 