# vtk DataFile Version 1.0 
PolyMesh 
ASCII 
 
DATASET POLYDATA 
 
POINTS 44 float 
0.000000e+00 0.000000e+00 0.000000e+00  
 5.700000e+00 0.000000e+00 0.000000e+00  
 5.700000e+00 3.000000e+00 0.000000e+00  
 4.600000e+00 3.000000e+00 0.000000e+00  
 2.700000e+00 1.410000e+01 0.000000e+00  
 4.600000e+00 1.410000e+01 0.000000e+00  
 5.700000e+00 8.700000e+00 0.000000e+00  
 5.700000e+00 1.700000e+01 0.000000e+00  
 0.000000e+00 1.700000e+01 0.000000e+00  
 1.370000e+01 0.000000e+00 0.000000e+00  
 1.370000e+01 3.000000e+00 0.000000e+00  
 1.020000e+01 3.000000e+00 0.000000e+00  
 1.020000e+01 1.410000e+01 0.000000e+00  
 1.370000e+01 1.410000e+01 0.000000e+00  
 1.370000e+01 1.700000e+01 0.000000e+00  
 1.670000e+01 3.000000e+00 0.000000e+00  
 1.670000e+01 4.500000e+00 0.000000e+00  
 1.250000e+01 4.500000e+00 0.000000e+00  
 1.250000e+01 8.000000e+00 0.000000e+00  
 1.590000e+01 8.000000e+00 0.000000e+00  
 1.590000e+01 9.300000e+00 0.000000e+00  
 1.250000e+01 9.300000e+00 0.000000e+00  
 1.250000e+01 1.280000e+01 0.000000e+00  
 1.670000e+01 1.280000e+01 0.000000e+00  
 1.670000e+01 1.410000e+01 0.000000e+00  
 2.170000e+01 0.000000e+00 0.000000e+00  
 2.170000e+01 3.000000e+00 0.000000e+00  
 2.070000e+01 8.600000e+00 0.000000e+00  
 2.070000e+01 3.000000e+00 0.000000e+00  
 1.820000e+01 3.000000e+00 0.000000e+00  
 1.820000e+01 1.410000e+01 0.000000e+00  
 2.070000e+01 1.410000e+01 0.000000e+00  
 2.170000e+01 8.600000e+00 0.000000e+00  
 2.170000e+01 1.700000e+01 0.000000e+00  
 2.270000e+01 8.600000e+00 0.000000e+00  
 2.270000e+01 3.000000e+00 0.000000e+00  
 2.510000e+01 3.000000e+00 0.000000e+00  
 2.510000e+01 1.410000e+01 0.000000e+00  
 2.270000e+01 1.410000e+01 0.000000e+00  
 2.720000e+01 0.000000e+00 0.000000e+00  
 2.720000e+01 1.700000e+01 0.000000e+00  
 6.700000e+00 3.000000e+00 0.000000e+00  
 9.200000e+00 1.410000e+01 0.000000e+00  
 6.700000e+00 1.410000e+01 0.000000e+00  
  
 POLYGONS 7 97 
 9 0  1  2  3  4  5  6  7  8   
 8 3  2  41  42  43  6  5  4   
 13 1  9  10  11  12  13  14  7  6  43  42  41  2   
 14 11  10  15  16  17  18  19  20  21  22  23  24  13  12   
 23 9  25  26  27  28  29  30  31  32  33  14  13  24  23  22  21  20  19  18  17  16  15  10   
 12 29  28  27  26  34  35  36  37  38  32  31  30   
 11 25  39  40  33  32  38  37  36  35  34  26   
  
 POINT_DATA 44 
 VECTORS Displacement float 
 0.000000e+00 0.000000e+00 0.000000e+00  
 -1.144071e-01 -5.021626e-02 0.000000e+00  
 -6.086459e-02 -5.188507e-02 0.000000e+00  
 -5.107365e-02 -4.037591e-02 0.000000e+00  
 3.727246e-02 -2.165968e-02 0.000000e+00  
 4.059056e-02 -4.306014e-02 0.000000e+00  
 -2.262449e-03 -5.339007e-02 0.000000e+00  
 1.061727e-01 -5.036347e-02 0.000000e+00  
 0.000000e+00 0.000000e+00 0.000000e+00  
 -1.956765e-01 -2.163786e-01 0.000000e+00  
 -1.221018e-01 -2.184626e-01 0.000000e+00  
 -1.127852e-01 -1.353468e-01 0.000000e+00  
 1.155698e-01 -1.343505e-01 0.000000e+00  
 1.240182e-01 -2.178067e-01 0.000000e+00  
 1.951738e-01 -2.159247e-01 0.000000e+00  
 -1.305540e-01 -2.987371e-01 0.000000e+00  
 -9.111053e-02 -2.988425e-01 0.000000e+00  
 -9.065229e-02 -1.903070e-01 0.000000e+00  
 -1.355789e-02 -1.900208e-01 0.000000e+00  
 -1.401067e-02 -2.777801e-01 0.000000e+00  
 2.051659e-02 -2.778836e-01 0.000000e+00  
 2.096937e-02 -1.901243e-01 0.000000e+00  
 9.806377e-02 -1.898381e-01 0.000000e+00  
 9.757736e-02 -2.983382e-01 0.000000e+00  
 1.323495e-01 -2.984505e-01 0.000000e+00  
 -2.364884e-01 -4.393228e-01 0.000000e+00  
 -1.491330e-01 -4.407268e-01 0.000000e+00  
 1.875733e-03 -4.116960e-01 0.000000e+00  
 -1.449738e-01 -4.113572e-01 0.000000e+00  
 -1.457522e-01 -3.402479e-01 0.000000e+00  
 1.457873e-01 -3.406187e-01 0.000000e+00  
 1.465669e-01 -4.117834e-01 0.000000e+00  
 2.523622e-03 -4.404888e-01 0.000000e+00  
 2.346457e-01 -4.397146e-01 0.000000e+00  
 2.144031e-03 -4.710335e-01 0.000000e+00  
 -1.527739e-01 -4.705187e-01 0.000000e+00  
 -1.533480e-01 -5.436693e-01 0.000000e+00  
 1.552151e-01 -5.440768e-01 0.000000e+00  
 1.563037e-01 -4.709796e-01 0.000000e+00  
 -2.437515e-01 -6.095089e-01 0.000000e+00  
 2.437382e-01 -6.094048e-01 0.000000e+00  
 -7.191048e-02 -6.785812e-02 0.000000e+00  
 7.905306e-02 -1.117892e-01 0.000000e+00  
 7.321640e-02 -7.282182e-02 0.000000e+00  
  
 