# vtk DataFile Version 1.0 
PolyMesh 
ASCII 
 
DATASET POLYDATA 
 
POINTS 411 float 
-2.224871e-01 9.771700e-02 0.000000e+00  
 -2.779415e-01 1.270248e-01 0.000000e+00  
 -1.824095e-01 -7.567668e-03 0.000000e+00  
 -2.109526e-01 -7.677304e-03 0.000000e+00  
 -2.398418e-01 1.402686e-02 0.000000e+00  
 -3.045987e-01 1.424249e-02 0.000000e+00  
 -1.757891e-01 1.057313e-01 0.000000e+00  
 -1.566258e-01 9.449650e-02 0.000000e+00  
 -1.787882e-01 1.901255e-01 0.000000e+00  
 -2.118455e-01 2.219324e-01 0.000000e+00  
 -1.031849e-01 2.887112e-01 0.000000e+00  
 -1.501731e-01 -9.854233e-02 0.000000e+00  
 -2.504102e-01 -9.225533e-02 0.000000e+00  
 -1.836823e-01 -1.160996e-01 0.000000e+00  
 -2.886374e-01 -1.047279e-01 0.000000e+00  
 -1.014847e-01 1.925935e-01 0.000000e+00  
 -7.805441e-02 1.654369e-01 0.000000e+00  
 -9.480308e-02 2.854357e-01 0.000000e+00  
 -7.005519e-02 1.627494e-01 0.000000e+00  
 -6.189731e-02 2.938103e-01 0.000000e+00  
 -7.612872e-03 1.786411e-01 0.000000e+00  
 -5.308033e-02 2.946920e-01 0.000000e+00  
 1.798817e-03 3.001799e-01 0.000000e+00  
 -8.991612e-02 -1.561400e-01 0.000000e+00  
 -1.086061e-01 -1.895384e-01 0.000000e+00  
 -1.941510e-01 -2.032322e-01 0.000000e+00  
 -2.142080e-01 -2.216666e-01 0.000000e+00  
 -9.738906e-02 -2.902611e-01 0.000000e+00  
 9.487067e-04 2.026361e-01 0.000000e+00  
 -2.619480e-03 1.841003e-01 0.000000e+00  
 6.325644e-02 2.539032e-01 0.000000e+00  
 6.127683e-02 2.977323e-01 0.000000e+00  
 6.735519e-02 3.067355e-01 0.000000e+00  
 -1.724887e-03 -1.808716e-01 0.000000e+00  
 -7.859504e-02 -2.704674e-01 0.000000e+00  
 -3.171952e-03 -2.123431e-01 0.000000e+00  
 -8.421273e-02 -2.915787e-01 0.000000e+00  
 4.441265e-03 -3.004441e-01 0.000000e+00  
 1.189661e-01 2.108255e-01 0.000000e+00  
 9.833766e-02 1.526696e-01 0.000000e+00  
 1.003813e-01 1.457206e-01 0.000000e+00  
 1.597760e-01 2.277616e-01 0.000000e+00  
 1.580123e-01 3.158012e-01 0.000000e+00  
 8.929247e-02 -1.580052e-01 0.000000e+00  
 1.371087e-01 -1.162688e-01 0.000000e+00  
 9.237868e-02 -1.507553e-01 0.000000e+00  
 1.320951e-01 -1.177832e-01 0.000000e+00  
 1.078300e-01 -2.169053e-01 0.000000e+00  
 5.200147e-02 -2.729645e-01 0.000000e+00  
 5.098496e-02 -3.023801e-01 0.000000e+00  
 1.732717e-01 -4.550849e-02 0.000000e+00  
 1.485205e-01 1.007155e-01 0.000000e+00  
 1.764582e-01 3.412325e-02 0.000000e+00  
 2.126945e-01 1.459965e-01 0.000000e+00  
 2.024644e-01 2.082462e-01 0.000000e+00  
 2.518553e-01 2.404777e-01 0.000000e+00  
 2.441682e-01 3.244168e-01 0.000000e+00  
 2.431340e-01 -6.349445e-02 0.000000e+00  
 2.058470e-01 -1.614325e-01 0.000000e+00  
 2.545370e-01 -1.267073e-01 0.000000e+00  
 2.024134e-01 -2.137158e-01 0.000000e+00  
 1.684275e-01 -2.388178e-01 0.000000e+00  
 1.662226e-01 -3.166223e-01 0.000000e+00  
 2.594741e-01 4.282249e-02 0.000000e+00  
 2.741696e-01 6.550015e-02 0.000000e+00  
 2.801676e-01 -2.753898e-02 0.000000e+00  
 2.607425e-01 1.238830e-01 0.000000e+00  
 3.132930e-01 2.175402e-01 0.000000e+00  
 3.167796e-01 1.694934e-01 0.000000e+00  
 3.458061e-01 2.468542e-01 0.000000e+00  
 3.281297e-01 3.328130e-01 0.000000e+00  
 3.329093e-01 -3.776191e-02 0.000000e+00  
 3.579482e-01 -1.005436e-01 0.000000e+00  
 3.015680e-01 -1.438936e-01 0.000000e+00  
 3.181896e-01 -2.135974e-01 0.000000e+00  
 2.732245e-01 -2.461284e-01 0.000000e+00  
 2.714523e-01 -3.271452e-01 0.000000e+00  
 3.809191e-01 1.574038e-02 0.000000e+00  
 3.827426e-01 1.276646e-01 0.000000e+00  
 3.556059e-01 6.358691e-02 0.000000e+00  
 4.243734e-01 7.089253e-03 0.000000e+00  
 4.072947e-01 1.361953e-01 0.000000e+00  
 4.304200e-01 2.136990e-01 0.000000e+00  
 4.047750e-01 2.416459e-01 0.000000e+00  
 4.391879e-01 3.439188e-01 0.000000e+00  
 3.627121e-01 -3.362712e-01 0.000000e+00  
 3.946544e-01 -1.109329e-01 0.000000e+00  
 4.478283e-01 -6.401504e-02 0.000000e+00  
 4.161886e-01 -1.637326e-01 0.000000e+00  
 3.694699e-01 -2.281471e-01 0.000000e+00  
 3.838564e-01 -2.550381e-01 0.000000e+00  
 4.940070e-01 -7.537633e-02 0.000000e+00  
 5.419192e-01 -3.267944e-02 0.000000e+00  
 4.670792e-01 1.018775e-01 0.000000e+00  
 4.681257e-01 4.219193e-02 0.000000e+00  
 5.352540e-01 1.372983e-02 0.000000e+00  
 4.582048e-01 3.458205e-01 0.000000e+00  
 4.941175e-01 2.203656e-01 0.000000e+00  
 5.170565e-01 1.308559e-01 0.000000e+00  
 5.243607e-01 1.806102e-01 0.000000e+00  
 5.115443e-01 2.636060e-01 0.000000e+00  
 4.735876e-01 -2.666454e-01 0.000000e+00  
 4.752932e-01 -3.475293e-01 0.000000e+00  
 4.801807e-01 -1.788641e-01 0.000000e+00  
 5.162311e-01 -1.443858e-01 0.000000e+00  
 4.904326e-01 -2.481013e-01 0.000000e+00  
 5.594025e-01 -1.505631e-01 0.000000e+00  
 6.027845e-01 -6.060414e-02 0.000000e+00  
 6.081299e-01 -1.028998e-01 0.000000e+00  
 5.616077e-01 -3.561608e-01 0.000000e+00  
 5.828239e-01 6.102553e-02 0.000000e+00  
 6.452951e-01 2.898313e-02 0.000000e+00  
 6.498361e-01 -1.996491e-02 0.000000e+00  
 5.789914e-01 8.821881e-02 0.000000e+00  
 5.721627e-01 2.834381e-01 0.000000e+00  
 5.804912e-01 3.580491e-01 0.000000e+00  
 6.182066e-01 2.424391e-01 0.000000e+00  
 6.336817e-01 1.484013e-01 0.000000e+00  
 6.057063e-01 1.981790e-01 0.000000e+00  
 6.519652e-01 3.651965e-01 0.000000e+00  
 5.806137e-01 -2.578954e-01 0.000000e+00  
 5.950935e-01 -2.169757e-01 0.000000e+00  
 6.700169e-01 -1.358554e-01 0.000000e+00  
 6.642165e-01 -1.904810e-01 0.000000e+00  
 7.125901e-01 -1.099555e-01 0.000000e+00  
 7.094758e-01 -4.792291e-02 0.000000e+00  
 6.708844e-01 -2.980205e-01 0.000000e+00  
 6.680719e-01 -3.668072e-01 0.000000e+00  
 7.585300e-01 -1.280989e-02 0.000000e+00  
 6.796206e-01 1.376399e-01 0.000000e+00  
 7.472225e-01 4.699853e-02 0.000000e+00  
 6.917230e-01 6.571240e-02 0.000000e+00  
 7.183400e-01 1.656313e-01 0.000000e+00  
 6.804705e-01 2.659277e-01 0.000000e+00  
 7.249789e-01 1.986230e-01 0.000000e+00  
 7.578565e-01 3.079240e-01 0.000000e+00  
 7.543438e-01 3.754344e-01 0.000000e+00  
 8.047229e-01 -3.184695e-02 0.000000e+00  
 8.528816e-01 -1.544295e-03 0.000000e+00  
 7.138974e-01 -2.353047e-01 0.000000e+00  
 7.129573e-01 -2.608668e-01 0.000000e+00  
 7.623876e-01 -1.329174e-01 0.000000e+00  
 7.686740e-01 -1.930308e-01 0.000000e+00  
 8.147988e-01 -1.002997e-01 0.000000e+00  
 8.507640e-01 -1.157622e-01 0.000000e+00  
 7.763802e-01 -3.072418e-01 0.000000e+00  
 7.695395e-01 -3.769540e-01 0.000000e+00  
 7.965240e-01 9.194667e-02 0.000000e+00  
 8.573247e-01 5.822523e-02 0.000000e+00  
 7.933048e-01 1.170696e-01 0.000000e+00  
 8.425805e-01 1.810568e-01 0.000000e+00  
 7.999653e-01 2.305197e-01 0.000000e+00  
 8.047989e-01 2.733104e-01 0.000000e+00  
 8.961946e-01 7.881835e-02 0.000000e+00  
 8.577711e-01 3.021602e-01 0.000000e+00  
 8.485598e-01 3.848560e-01 0.000000e+00  
 9.566817e-01 4.536097e-02 0.000000e+00  
 9.631386e-01 -1.848628e-03 0.000000e+00  
 9.162472e-01 -3.949268e-02 0.000000e+00  
 9.152363e-01 -8.021203e-02 0.000000e+00  
 8.311227e-01 -2.195728e-01 0.000000e+00  
 8.333554e-01 -2.747085e-01 0.000000e+00  
 8.679576e-01 -1.881391e-01 0.000000e+00  
 9.219565e-01 -1.960315e-01 0.000000e+00  
 9.575028e-01 -1.186945e-01 0.000000e+00  
 8.802998e-01 -3.058116e-01 0.000000e+00  
 8.717657e-01 -3.871766e-01 0.000000e+00  
 8.747376e-01 1.804134e-01 0.000000e+00  
 9.079157e-01 1.389853e-01 0.000000e+00  
 9.131142e-01 2.384113e-01 0.000000e+00  
 9.006735e-01 2.834639e-01 0.000000e+00  
 1.011621e+00 9.622902e-02 0.000000e+00  
 9.782918e-01 1.490776e-01 0.000000e+00  
 9.548921e-01 3.267670e-01 0.000000e+00  
 9.478885e-01 3.947889e-01 0.000000e+00  
 1.041299e+00 9.073589e-02 0.000000e+00  
 1.021122e+00 -2.491268e-02 0.000000e+00  
 1.068991e+00 2.855476e-02 0.000000e+00  
 1.000376e+00 -1.169539e-01 0.000000e+00  
 1.033503e+00 -6.403515e-02 0.000000e+00  
 9.465289e-01 -2.273045e-01 0.000000e+00  
 9.310092e-01 -2.862843e-01 0.000000e+00  
 1.007722e+00 -2.197806e-01 0.000000e+00  
 1.031178e+00 -1.630817e-01 0.000000e+00  
 9.813575e-01 -3.288276e-01 0.000000e+00  
 9.730086e-01 -3.973009e-01 0.000000e+00  
 1.001793e+00 2.142838e-01 0.000000e+00  
 1.012631e+00 2.967728e-01 0.000000e+00  
 1.072027e+00 1.991822e-01 0.000000e+00  
 1.089647e+00 1.336239e-01 0.000000e+00  
 1.054687e+00 3.190192e-01 0.000000e+00  
 1.049249e+00 4.049249e-01 0.000000e+00  
 1.141895e+00 1.204452e-01 0.000000e+00  
 1.158503e+00 5.539064e-02 0.000000e+00  
 1.120025e+00 1.843165e-02 0.000000e+00  
 1.106167e+00 -8.038271e-02 0.000000e+00  
 1.138152e+00 -4.706378e-02 0.000000e+00  
 1.116461e+00 -1.470326e-01 0.000000e+00  
 1.101809e+00 -1.631549e-01 0.000000e+00  
 1.043825e+00 -2.995883e-01 0.000000e+00  
 1.048333e+00 -2.661296e-01 0.000000e+00  
 1.109515e+00 -2.333932e-01 0.000000e+00  
 1.083991e+00 -3.402948e-01 0.000000e+00  
 1.077072e+00 -4.077072e-01 0.000000e+00  
 1.113123e+00 2.372820e-01 0.000000e+00  
 1.100339e+00 2.994639e-01 0.000000e+00  
 1.170958e+00 2.200226e-01 0.000000e+00  
 1.184240e+00 1.579567e-01 0.000000e+00  
 1.155153e+00 3.374472e-01 0.000000e+00  
 1.144598e+00 4.144598e-01 0.000000e+00  
 1.239670e+00 1.420350e-01 0.000000e+00  
 1.253875e+00 8.057556e-02 0.000000e+00  
 1.214902e+00 4.335661e-02 0.000000e+00  
 1.232383e+00 -2.144221e-02 0.000000e+00  
 1.197486e+00 -5.680531e-02 0.000000e+00  
 1.216133e+00 -1.254199e-01 0.000000e+00  
 1.188316e+00 -1.536690e-01 0.000000e+00  
 1.202584e+00 -2.265165e-01 0.000000e+00  
 1.156366e+00 -2.585533e-01 0.000000e+00  
 1.157643e+00 -3.144182e-01 0.000000e+00  
 1.181963e+00 -3.366995e-01 0.000000e+00  
 1.175341e+00 -4.175341e-01 0.000000e+00  
 1.214887e+00 2.586185e-01 0.000000e+00  
 1.205336e+00 3.149235e-01 0.000000e+00  
 1.271928e+00 2.375008e-01 0.000000e+00  
 1.283062e+00 1.806870e-01 0.000000e+00  
 1.257630e+00 3.549718e-01 0.000000e+00  
 1.249528e+00 4.249528e-01 0.000000e+00  
 1.338406e+00 1.621162e-01 0.000000e+00  
 1.312164e+00 6.593566e-02 0.000000e+00  
 1.351265e+00 1.033851e-01 0.000000e+00  
 1.325991e+00 7.176619e-03 0.000000e+00  
[...]
 POINT_DATA 411 
 VECTORS Displacement float 
 -1.319653e-05 -3.470922e-04 0.000000e+00  
 -1.977979e-05 -3.595124e-04 0.000000e+00  
 7.141933e-06 -3.406333e-04 0.000000e+00  
 7.293910e-06 -3.456262e-04 0.000000e+00  
 3.503072e-06 -3.510348e-04 0.000000e+00  
 3.449296e-06 -3.634790e-04 0.000000e+00  
 -1.473458e-05 -3.360521e-04 0.000000e+00  
 -1.230519e-05 -3.314679e-04 0.000000e+00  
 -3.584035e-05 -3.361649e-04 0.000000e+00  
 -4.412537e-05 -3.448903e-04 0.000000e+00  
 -6.438674e-05 -3.144826e-04 0.000000e+00  
 2.194579e-05 -3.358407e-04 0.000000e+00  
 2.167758e-05 -3.535163e-04 0.000000e+00  
 2.514050e-05 -3.417134e-04 0.000000e+00  
 2.392954e-05 -3.602798e-04 0.000000e+00  
 -3.659972e-05 -3.143113e-04 0.000000e+00  
 -2.903218e-05 -3.073178e-04 0.000000e+00  
 -6.334823e-05 -3.116239e-04 0.000000e+00  
 -2.721715e-05 -3.041275e-04 0.000000e+00  
 -6.650900e-05 -3.013836e-04 0.000000e+00  
 -3.189235e-05 -2.841608e-04 0.000000e+00  
 -6.622052e-05 -2.985913e-04 0.000000e+00  
 -6.751065e-05 -2.818324e-04 0.000000e+00  
 3.149060e-05 -3.218992e-04 0.000000e+00  
 3.924479e-05 -3.262254e-04 0.000000e+00  
 4.244014e-05 -3.444293e-04 0.000000e+00  
 4.608894e-05 -3.486566e-04 0.000000e+00  
 6.470425e-05 -3.231109e-04 0.000000e+00  
 -3.951155e-05 -2.813720e-04 0.000000e+00  
 -3.408354e-05 -2.824356e-04 0.000000e+00  
 -5.334753e-05 -2.629960e-04 0.000000e+00  
 -6.508125e-05 -2.637880e-04 0.000000e+00  
 -6.664879e-05 -2.620889e-04 0.000000e+00  
 3.537185e-05 -2.960266e-04 0.000000e+00  
 5.999257e-05 -3.181290e-04 0.000000e+00  
 4.460352e-05 -2.962875e-04 0.000000e+00  
 6.583571e-05 -3.198476e-04 0.000000e+00  
 6.994480e-05 -2.931259e-04 0.000000e+00  
 -4.195106e-05 -2.476949e-04 0.000000e+00  
 -2.769629e-05 -2.529426e-04 0.000000e+00  
 -2.713754e-05 -2.520031e-04 0.000000e+00  
 -4.575741e-05 -2.379644e-04 0.000000e+00  
 -6.659147e-05 -2.391190e-04 0.000000e+00  
 2.895745e-05 -2.662846e-04 0.000000e+00  
 2.016868e-05 -2.496185e-04 0.000000e+00  
 2.739179e-05 -2.655058e-04 0.000000e+00  
 1.897266e-05 -2.534658e-04 0.000000e+00  
 4.557232e-05 -2.602966e-04 0.000000e+00  
 6.158870e-05 -2.782453e-04 0.000000e+00  
 7.029641e-05 -2.785348e-04 0.000000e+00  
 6.734460e-06 -2.372246e-04 0.000000e+00  
 -1.823454e-05 -2.401553e-04 0.000000e+00  
 -6.813259e-06 -2.342890e-04 0.000000e+00  
 -2.773105e-05 -2.259019e-04 0.000000e+00  
 -4.104599e-05 -2.280703e-04 0.000000e+00  
 -4.769171e-05 -2.171322e-04 0.000000e+00  
 -6.620480e-05 -2.193984e-04 0.000000e+00  
 1.011184e-05 -2.209193e-04 0.000000e+00  
 3.061755e-05 -2.309597e-04 0.000000e+00  
 2.302616e-05 -2.184375e-04 0.000000e+00  
 4.354388e-05 -2.324181e-04 0.000000e+00  
 5.054421e-05 -2.422008e-04 0.000000e+00  
 7.122595e-05 -2.436280e-04 0.000000e+00  
 -8.844613e-06 -2.164911e-04 0.000000e+00  
 -1.290493e-05 -2.129100e-04 0.000000e+00  
 3.673845e-06 -2.121405e-04 0.000000e+00  
 -2.364594e-05 -2.154638e-04 0.000000e+00  
 -4.221117e-05 -2.035982e-04 0.000000e+00  
 -3.259613e-05 -2.028498e-04 0.000000e+00  
 -4.775730e-05 -1.966459e-04 0.000000e+00  
 -6.594779e-05 -2.011430e-04 0.000000e+00  
 5.811931e-06 -1.998545e-04 0.000000e+00  
 1.793622e-05 -1.940578e-04 0.000000e+00  
 2.676803e-05 -2.070945e-04 0.000000e+00  
 4.198753e-05 -2.033486e-04 0.000000e+00  
 5.022157e-05 -2.144258e-04 0.000000e+00  
 6.978594e-05 -2.157921e-04 0.000000e+00  
 -3.836574e-06 -1.890018e-04 0.000000e+00  
 -2.427047e-05 -1.884765e-04 0.000000e+00  
 -1.257017e-05 -1.945940e-04 0.000000e+00  
 -2.099418e-06 -1.792824e-04 0.000000e+00  
 -2.569505e-05 -1.830835e-04 0.000000e+00  
 -3.997335e-05 -1.783392e-04 0.000000e+00  
 -4.574454e-05 -1.839635e-04 0.000000e+00  
 -6.543334e-05 -1.774732e-04 0.000000e+00  
 6.810208e-05 -1.943933e-04 0.000000e+00  
 1.999135e-05 -1.857112e-04 0.000000e+00  
 1.102261e-05 -1.740720e-04 0.000000e+00  
 3.039475e-05 -1.809891e-04 0.000000e+00  
 4.426673e-05 -1.916253e-04 0.000000e+00  
 4.983700e-05 -1.886120e-04 0.000000e+00  
 1.304694e-05 -1.641352e-04 0.000000e+00  
 5.304874e-06 -1.541424e-04 0.000000e+00  
 -1.894370e-05 -1.701765e-04 0.000000e+00  
 -8.227865e-06 -1.698312e-04 0.000000e+00  
 -2.869355e-06 -1.555910e-04 0.000000e+00  
 -6.498398e-05 -1.735602e-04 0.000000e+00  
 -4.017074e-05 -1.649577e-04 0.000000e+00  
 -2.362951e-05 -1.597344e-04 0.000000e+00  
 -3.241973e-05 -1.584657e-04 0.000000e+00  
 -4.786772e-05 -1.617085e-04 0.000000e+00  
 4.996811e-05 -1.692802e-04 0.000000e+00  
 6.614999e-05 -1.699654e-04 0.000000e+00  
 3.260274e-05 -1.672394e-04 0.000000e+00  
 2.564039e-05 -1.595427e-04 0.000000e+00  
 4.589676e-05 -1.655605e-04 0.000000e+00  
 2.626059e-05 -1.507152e-04 0.000000e+00  
 1.005487e-05 -1.417941e-04 0.000000e+00  
 1.730910e-05 -1.408057e-04 0.000000e+00  
 6.440748e-05 -1.523650e-04 0.000000e+00  
 -1.082262e-05 -1.459714e-04 0.000000e+00  
 -5.042557e-06 -1.335188e-04 0.000000e+00  
 3.085625e-06 -1.325674e-04 0.000000e+00  
 -1.552274e-05 -1.468466e-04 0.000000e+00  
 -4.994458e-05 -1.496650e-04 0.000000e+00  
 -6.342664e-05 -1.489246e-04 0.000000e+00  
 -4.145752e-05 -1.400708e-04 0.000000e+00  
 -2.507580e-05 -1.363047e-04 0.000000e+00  
 -3.405436e-05 -1.421456e-04 0.000000e+00  
 -6.192933e-05 -1.351634e-04 0.000000e+00  
 4.541870e-05 -1.471639e-04 0.000000e+00  
 3.759379e-05 -1.439522e-04 0.000000e+00  
 2.223972e-05 -1.289264e-04 0.000000e+00  
 3.155356e-05 -1.303641e-04 0.000000e+00  
 1.745476e-05 -1.208204e-04 0.000000e+00  
 7.518812e-06 -1.212594e-04 0.000000e+00  
 4.982101e-05 -1.302165e-04 0.000000e+00  
 6.201537e-05 -1.318097e-04 0.000000e+00  
 1.864616e-06 -1.122499e-04 0.000000e+00  
 -2.258170e-05 -1.273633e-04 0.000000e+00  
 -7.417887e-06 -1.143932e-04 0.000000e+00  
 -1.076760e-05 -1.247463e-04 0.000000e+00  
 -2.643458e-05 -1.202843e-04 0.000000e+00  
 -4.376552e-05 -1.283150e-04 0.000000e+00  
 -3.157949e-05 -1.193558e-04 0.000000e+00  
 -4.826911e-05 -1.147003e-04 0.000000e+00  
 -5.948186e-05 -1.164008e-04 0.000000e+00  
 4.677477e-06 -1.040727e-04 0.000000e+00  
 1.764891e-07 -9.582942e-05 0.000000e+00  
 3.789167e-05 -1.214138e-04 0.000000e+00  
 4.217495e-05 -1.218624e-04 0.000000e+00  
 2.047228e-05 -1.118536e-04 0.000000e+00  
 2.975618e-05 -1.111580e-04 0.000000e+00  
 1.483308e-05 -1.024868e-04 0.000000e+00  
 1.666960e-05 -9.644910e-05 0.000000e+00  
 4.762484e-05 -1.111179e-04 0.000000e+00  
 5.916611e-05 -1.134619e-04 0.000000e+00  
 -1.387397e-05 -1.057295e-04 0.000000e+00  
 -8.357674e-06 -9.518429e-05 0.000000e+00  
 -1.770304e-05 -1.064363e-04 0.000000e+00  
 -2.633877e-05 -9.840616e-05 0.000000e+00  
 -3.475050e-05 -1.062363e-04 0.000000e+00  
 -4.119729e-05 -1.059046e-04 0.000000e+00  
 -1.094447e-05 -8.885029e-05 0.000000e+00  
 -4.370939e-05 -9.730634e-05 0.000000e+00  
 -5.660593e-05 -1.002696e-04 0.000000e+00  
 -5.950568e-06 -7.915362e-05 0.000000e+00  
 2.444573e-07 -7.808038e-05 0.000000e+00  
 5.365687e-06 -8.543983e-05 0.000000e+00  
 1.092054e-05 -8.570658e-05 0.000000e+00  
 3.234026e-05 -1.005240e-04 0.000000e+00  
 4.054928e-05 -1.008073e-04 0.000000e+00  
 2.682401e-05 -9.407197e-05 0.000000e+00  
 2.665440e-05 -8.540517e-05 0.000000e+00  
 1.557326e-05 -7.927698e-05 0.000000e+00  
 4.349504e-05 -9.346740e-05 0.000000e+00  
 5.588921e-05 -9.629422e-05 0.000000e+00  
 -2.556197e-05 -9.299890e-05 0.000000e+00  
 -1.909235e-05 -8.729529e-05 0.000000e+00  
 -3.274283e-05 -8.740460e-05 0.000000e+00  
 -3.945140e-05 -8.998248e-05 0.000000e+00  
 -1.195724e-05 -7.105397e-05 0.000000e+00  
 -1.917776e-05 -7.639013e-05 0.000000e+00  
 -4.341324e-05 -8.214325e-05 0.000000e+00  
 -5.314943e-05 -8.446153e-05 0.000000e+00  
 -1.091139e-05 -6.670687e-05 0.000000e+00  
 3.070947e-06 -6.941157e-05 0.000000e+00  
 -3.321000e-06 -6.262515e-05 0.000000e+00  
 1.473258e-05 -7.277862e-05 0.000000e+00  
 7.794752e-06 -6.770094e-05 0.000000e+00  
 3.027538e-05 -8.187817e-05 0.000000e+00  
 3.885258e-05 -8.507953e-05 0.000000e+00  
 2.757355e-05 -7.262102e-05 0.000000e+00  
 1.992747e-05 -6.865440e-05 0.000000e+00  
 4.264622e-05 -7.806305e-05 0.000000e+00  
 5.223262e-05 -8.059391e-05 0.000000e+00  
 -2.701457e-05 -7.341351e-05 0.000000e+00  
 -3.717891e-05 -7.299252e-05 0.000000e+00  
 -2.328382e-05 -6.324561e-05 0.000000e+00  
 -1.527622e-05 -6.023691e-05 0.000000e+00  
 -3.827823e-05 -6.731023e-05 0.000000e+00  
 -4.918520e-05 -6.973297e-05 0.000000e+00  
 -1.293470e-05 -5.321418e-05 0.000000e+00  
 -5.807482e-06 -5.077107e-05 0.000000e+00  
 -2.009092e-06 -5.567608e-05 0.000000e+00  
 9.038140e-06 -5.770054e-05 0.000000e+00  
 5.093807e-06 -5.336076e-05 0.000000e+00  
 1.636626e-05 -5.671462e-05 0.000000e+00  
 1.846828e-05 -5.881039e-05 0.000000e+00  
 3.637641e-05 -6.845775e-05 0.000000e+00  
 3.209499e-05 -6.732692e-05 0.000000e+00  
 2.625835e-05 -5.855975e-05 0.000000e+00  
 3.961594e-05 -6.361483e-05 0.000000e+00  
 4.801311e-05 -6.588771e-05 0.000000e+00  
 -2.654300e-05 -5.811143e-05 0.000000e+00  
 -3.412580e-05 -6.071894e-05 0.000000e+00  
 -2.291719e-05 -5.046636e-05 0.000000e+00  
 -1.611609e-05 -4.816693e-05 0.000000e+00  
 -3.607465e-05 -5.425557e-05 0.000000e+00  
 -4.511048e-05 -5.715210e-05 0.000000e+00  
 -1.342655e-05 -4.142827e-05 0.000000e+00  
 -7.432679e-06 -3.939762e-05 0.000000e+00  
 -4.220317e-06 -4.380331e-05 0.000000e+00  
 2.053368e-06 -4.169982e-05 0.000000e+00  
 5.695678e-06 -4.593954e-05 0.000000e+00  
 1.229458e-05 -4.404931e-05 0.000000e+00  
 1.565036e-05 -4.763790e-05 0.000000e+00  
 2.271566e-05 -4.668627e-05 0.000000e+00  
 2.756717e-05 -5.278249e-05 0.000000e+00  
 3.349488e-05 -5.350444e-05 0.000000e+00  
 3.482515e-05 -5.091025e-05 0.000000e+00  
 4.366499e-05 -5.338752e-05 0.000000e+00  
 -2.547892e-05 -4.564007e-05 0.000000e+00  
 -3.152715e-05 -4.767990e-05 0.000000e+00  
 -2.155581e-05 -3.883891e-05 0.000000e+00  
 -1.605469e-05 -3.691877e-05 0.000000e+00  
 -3.310596e-05 -4.239319e-05 0.000000e+00  
 -4.024055e-05 -4.478521e-05 0.000000e+00  
 -1.313746e-05 -3.090063e-05 0.000000e+00  
 -5.540730e-06 -3.291852e-05 0.000000e+00  
 -8.123377e-06 -2.908276e-05 0.000000e+00  
 -5.928466e-07 -3.133291e-05 0.000000e+00  
 2.758879e-06 -3.514046e-05 0.000000e+00  
 1.198319e-05 -3.782492e-05 0.000000e+00  
 7.864971e-06 -3.323974e-05 0.000000e+00  
 2.254227e-05 -4.127429e-05 0.000000e+00  
 1.768492e-05 -3.575510e-05 0.000000e+00  
 2.919971e-05 -4.035106e-05 0.000000e+00  
 3.925874e-05 -4.251770e-05 0.000000e+00  
 -2.356251e-05 -3.436884e-05 0.000000e+00  
 -2.808203e-05 -3.592162e-05 0.000000e+00  
 -1.923276e-05 -2.819966e-05 0.000000e+00  
 -1.515362e-05 -2.682804e-05 0.000000e+00  
 -1.164076e-05 -2.121483e-05 0.000000e+00  
 -2.917944e-05 -3.155703e-05 0.000000e+00  
 -3.484000e-05 -3.366153e-05 0.000000e+00  
 -7.923122e-06 -2.012796e-05 0.000000e+00  
 -6.167964e-06 -2.349755e-05 0.000000e+00  
 -5.162871e-06 -1.455165e-05 0.000000e+00  
 5.674193e-07 -2.430034e-05 0.000000e+00  
 -1.599566e-06 -2.187402e-05 0.000000e+00  
 3.858773e-06 -2.353453e-05 0.000000e+00  
 8.007681e-06 -2.827310e-05 0.000000e+00  
 1.703652e-05 -3.118731e-05 0.000000e+00  
 1.160373e-05 -2.661664e-05 0.000000e+00  
 1.951713e-05 -2.951717e-05 0.000000e+00  
 2.618688e-05 -3.355756e-05 0.000000e+00  
 2.762584e-05 -3.127726e-05 0.000000e+00  
 3.565089e-05 -3.518779e-05 0.000000e+00  
 -2.053840e-05 -2.434052e-05 0.000000e+00  
 -2.401865e-05 -2.560176e-05 0.000000e+00  
 -1.609727e-05 -1.896907e-05 0.000000e+00  
 -1.269358e-05 -1.782767e-05 0.000000e+00  
 -9.055200e-06 -1.294554e-05 0.000000e+00  
 -5.594494e-06 -1.209846e-05 0.000000e+00  
 -2.450815e-05 -2.216365e-05 0.000000e+00  
 -2.906157e-05 -2.409165e-05 0.000000e+00  
 -8.460849e-07 -1.436167e-05 0.000000e+00  
 -4.035409e-07 -6.685452e-06 0.000000e+00  
 -3.002912e-06 -7.211487e-06 0.000000e+00  
 3.520432e-06 -1.496131e-05 0.000000e+00  
 4.961775e-06 -1.803429e-05 0.000000e+00  
 1.060067e-05 -2.016482e-05 0.000000e+00  
 1.099279e-05 -1.974899e-05 0.000000e+00  
 1.748643e-05 -2.294015e-05 0.000000e+00  
 1.824756e-05 -2.220128e-05 0.000000e+00  
 2.428396e-05 -2.528843e-05 0.000000e+00  
 2.502359e-05 -2.404626e-05 0.000000e+00  
 3.071704e-05 -2.661959e-05 0.000000e+00  
 -1.651390e-05 -1.583404e-05 0.000000e+00  
 -1.956074e-05 -1.704418e-05 0.000000e+00  
 -1.238626e-05 -1.159782e-05 0.000000e+00  
 -8.949895e-06 -1.024746e-05 0.000000e+00  
 -5.731608e-06 -6.581294e-06 0.000000e+00  
 -2.876725e-06 -4.989925e-06 0.000000e+00  
 0.000000e+00 0.000000e+00 0.000000e+00  
 -1.944917e-05 -1.449788e-05 0.000000e+00  
 -2.320172e-05 -1.629947e-05 0.000000e+00  
 4.015280e-06 -1.151851e-05 0.000000e+00  
 -2.586197e-07 -6.264872e-06 0.000000e+00  
 1.761246e-06 -6.954310e-06 0.000000e+00  
 0.000000e+00 0.000000e+00 0.000000e+00  
 9.605963e-06 -1.435316e-05 0.000000e+00  
 6.848854e-06 -1.159462e-05 0.000000e+00  
 1.596825e-05 -1.692022e-05 0.000000e+00  
 1.268247e-05 -1.408396e-05 0.000000e+00  
 1.980071e-05 -1.685748e-05 0.000000e+00  
 2.051178e-05 -1.743559e-05 0.000000e+00  
 2.570347e-05 -1.931034e-05 0.000000e+00  
 -1.193308e-05 -9.099061e-06 0.000000e+00  
 -1.481724e-05 -1.028592e-05 0.000000e+00  
 -7.843195e-06 -5.750534e-06 0.000000e+00  
 -4.773214e-06 -4.345266e-06 0.000000e+00  
 0.000000e+00 0.000000e+00 0.000000e+00  
 -1.438621e-05 -8.608564e-06 0.000000e+00  
 -1.769871e-05 -1.028633e-05 0.000000e+00  
 5.140763e-06 -6.763700e-06 0.000000e+00  
 1.822304e-06 -3.673554e-06 0.000000e+00  
 0.000000e+00 0.000000e+00 0.000000e+00  
 5.907132e-06 -6.561247e-06 0.000000e+00  
 1.083122e-05 -1.033388e-05 0.000000e+00  
 1.686250e-05 -1.306892e-05 0.000000e+00  
 1.201497e-05 -9.970288e-06 0.000000e+00  
 1.730203e-05 -1.191185e-05 0.000000e+00  
 2.158338e-05 -1.432637e-05 0.000000e+00  
 -9.765482e-06 -4.996227e-06 0.000000e+00  
 -6.869217e-06 -4.118639e-06 0.000000e+00  
 0.000000e+00 0.000000e+00 0.000000e+00  
 -9.503539e-06 -4.105542e-06 0.000000e+00  
 -1.335289e-05 -6.143655e-06 0.000000e+00  
 3.992576e-06 -3.613221e-06 0.000000e+00  
 0.000000e+00 0.000000e+00 0.000000e+00  
 7.898706e-06 -5.319223e-06 0.000000e+00  
 9.345646e-06 -6.318072e-06 0.000000e+00  
 1.343647e-05 -8.089399e-06 0.000000e+00  
 1.341932e-05 -7.530622e-06 0.000000e+00  
 1.696629e-05 -9.494706e-06 0.000000e+00  
 -7.248453e-06 -2.553222e-06 0.000000e+00  
 0.000000e+00 0.000000e+00 0.000000e+00  
 -7.022031e-06 -1.886881e-06 0.000000e+00  
 -9.877600e-06 -3.308752e-06 0.000000e+00  
 5.535117e-06 -3.071587e-06 0.000000e+00  
 0.000000e+00 0.000000e+00 0.000000e+00  
 8.589735e-06 -3.715050e-06 0.000000e+00  
 9.831438e-06 -4.352833e-06 0.000000e+00  
 1.290165e-05 -5.651329e-06 0.000000e+00  
 -5.266845e-06 -9.615959e-07 0.000000e+00  
 0.000000e+00 0.000000e+00 0.000000e+00  
 -5.183812e-06 -4.810501e-07 0.000000e+00  
 -7.239464e-06 -1.222808e-06 0.000000e+00  
 -6.644841e-06 -9.338095e-07 0.000000e+00  
 6.586301e-06 -2.237190e-06 0.000000e+00  
 0.000000e+00 0.000000e+00 0.000000e+00  
 7.045818e-06 -1.903221e-06 0.000000e+00  
 6.269027e-06 -1.443150e-06 0.000000e+00  
 1.100264e-05 -4.044280e-06 0.000000e+00  
 9.420526e-06 -3.103755e-06 0.000000e+00  
 -3.734632e-06 8.462857e-08 0.000000e+00  
 0.000000e+00 0.000000e+00 0.000000e+00  
 -3.706302e-06 3.357591e-07 0.000000e+00  
 -5.219411e-06 1.763188e-07 0.000000e+00  
 2.809605e-06 -2.197166e-07 0.000000e+00  
 0.000000e+00 0.000000e+00 0.000000e+00  
 3.587308e-06 -4.911196e-08 0.000000e+00  
 6.779065e-06 -1.193207e-06 0.000000e+00  
 4.576659e-06 -1.901523e-07 0.000000e+00  
 7.809073e-06 -1.694118e-06 0.000000e+00  
 6.983265e-06 -1.181859e-06 0.000000e+00  
 -2.436408e-06 6.289544e-07 0.000000e+00  
 0.000000e+00 0.000000e+00 0.000000e+00  
 -2.428513e-06 8.250600e-07 0.000000e+00  
 -3.541182e-06 1.017129e-06 0.000000e+00  
 1.346627e-06 3.071521e-07 0.000000e+00  
 0.000000e+00 0.000000e+00 0.000000e+00  
 2.267967e-06 4.739258e-07 0.000000e+00  
 4.753269e-06 4.752713e-08 0.000000e+00  
 3.382305e-06 4.824958e-07 0.000000e+00  
 5.774642e-06 -1.533626e-07 0.000000e+00  
 -1.485451e-06 8.563206e-07 0.000000e+00  
 0.000000e+00 0.000000e+00 0.000000e+00  
 -1.505086e-06 9.697387e-07 0.000000e+00  
 -2.296984e-06 1.321658e-06 0.000000e+00  
 0.000000e+00 0.000000e+00 0.000000e+00  
 1.556638e-06 6.611958e-07 0.000000e+00  
 9.121010e-07 4.930672e-07 0.000000e+00  
 2.291155e-06 8.941279e-07 0.000000e+00  
 3.616831e-06 8.230263e-07 0.000000e+00  
 3.956895e-06 8.762028e-07 0.000000e+00  
 -8.700681e-07 9.013276e-07 0.000000e+00  
 0.000000e+00 0.000000e+00 0.000000e+00  
 -8.833777e-07 9.332233e-07 0.000000e+00  
 -1.442956e-06 1.372220e-06 0.000000e+00  
 0.000000e+00 0.000000e+00 0.000000e+00  
 1.048882e-06 7.891061e-07 0.000000e+00  
 4.106476e-07 4.696560e-07 0.000000e+00  
 1.346588e-06 9.720957e-07 0.000000e+00  
 2.154025e-06 1.134256e-06 0.000000e+00  
 2.566746e-06 1.297982e-06 0.000000e+00  
 0.000000e+00 0.000000e+00 0.000000e+00  
 -4.199522e-07 8.185449e-07 0.000000e+00  
 -5.226368e-07 8.938827e-07 0.000000e+00  
 -8.337399e-07 1.329382e-06 0.000000e+00  
 0.000000e+00 0.000000e+00 0.000000e+00  
 2.316755e-07 5.044806e-07 0.000000e+00  
 5.667476e-07 7.686404e-07 0.000000e+00  
 0.000000e+00 0.000000e+00 0.000000e+00  
 0.000000e+00 0.000000e+00 0.000000e+00  
 1.315990e-06 1.210290e-06 0.000000e+00  
 7.496454e-07 9.599619e-07 0.000000e+00  
 1.567051e-06 1.397482e-06 0.000000e+00  
 -2.494583e-07 8.704046e-07 0.000000e+00  
 -1.305462e-07 7.401450e-07 0.000000e+00  
 -3.876944e-07 1.276340e-06 0.000000e+00  
 2.391347e-07 8.915551e-07 0.000000e+00  
 3.089023e-07 8.319033e-07 0.000000e+00  
 9.656771e-08 7.310091e-07 0.000000e+00  
 7.264697e-07 1.194983e-06 0.000000e+00  
 -9.775247e-09 8.628513e-07 0.000000e+00  
 8.206014e-07 1.337911e-06 0.000000e+00  
 -9.993439e-09 1.255683e-06 0.000000e+00  
 3.394340e-07 1.280456e-06 0.000000e+00  
  
 