# vtk DataFile Version 1.0 
PolyMesh 
ASCII 
 
DATASET POLYDATA 
 
POINTS 5993 float 
-2.988563e-01 -2.975447e-02 0.000000e+00  
 -3.003445e-01 9.143581e-05 0.000000e+00  
 -2.819985e-01 -2.768030e-02 0.000000e+00  
 -2.755930e-01 -1.304409e-02 0.000000e+00  
 -2.853450e-01 -4.950531e-04 0.000000e+00  
 -2.989810e-01 2.783141e-02 0.000000e+00  
 -2.573966e-01 -3.585255e-02 0.000000e+00  
 -2.720824e-01 -3.828606e-02 0.000000e+00  
 -2.774470e-01 -5.460429e-02 0.000000e+00  
 -2.946905e-01 -5.800819e-02 0.000000e+00  
 -2.495854e-01 -4.240783e-02 0.000000e+00  
 -2.363112e-01 -4.013353e-02 0.000000e+00  
 -2.953539e-01 5.443323e-02 0.000000e+00  
 -2.766226e-01 2.520405e-02 0.000000e+00  
 -2.732552e-01 1.525981e-02 0.000000e+00  
 -2.543163e-01 -1.576548e-02 0.000000e+00  
 -2.589012e-01 8.925053e-03 0.000000e+00  
 -2.602672e-01 -1.093987e-02 0.000000e+00  
 -2.708704e-01 3.459495e-02 0.000000e+00  
 -2.770280e-01 5.125016e-02 0.000000e+00  
 -2.305229e-01 -2.173520e-02 0.000000e+00  
 -2.398793e-01 -1.363754e-02 0.000000e+00  
 -2.195917e-01 -2.019444e-02 0.000000e+00  
 -2.533738e-01 -6.134584e-02 0.000000e+00  
 -2.668955e-01 -6.422672e-02 0.000000e+00  
 -2.716116e-01 -8.154585e-02 0.000000e+00  
 -2.877562e-01 -8.612524e-02 0.000000e+00  
 -2.442376e-01 -6.880665e-02 0.000000e+00  
 -2.257172e-01 -4.961932e-02 0.000000e+00  
 -2.309934e-01 -6.576345e-02 0.000000e+00  
 -2.149434e-01 -4.742761e-02 0.000000e+00  
 -2.080672e-01 -3.055740e-02 0.000000e+00  
 -1.984606e-01 -2.897843e-02 0.000000e+00  
 -2.888916e-01 8.210676e-02 0.000000e+00  
 -2.663462e-01 6.201040e-02 0.000000e+00  
 -2.684378e-01 7.551570e-02 0.000000e+00  
 -2.457030e-01 3.053745e-02 0.000000e+00  
 -2.474155e-01 1.439108e-02 0.000000e+00  
 -2.512414e-01 3.640051e-02 0.000000e+00  
 -2.350279e-01 5.560982e-03 0.000000e+00  
 -2.491658e-01 5.517462e-02 0.000000e+00  
 -2.118891e-01 -1.753495e-03 0.000000e+00  
 -2.235666e-01 8.250262e-03 0.000000e+00  
 -2.020613e-01 -5.129703e-04 0.000000e+00  
 -1.910261e-01 -1.348028e-02 0.000000e+00  
 -1.750180e-01 -1.181136e-02 0.000000e+00  
 -2.474648e-01 -8.700867e-02 0.000000e+00  
 -2.596867e-01 -9.045867e-02 0.000000e+00  
 -2.636791e-01 -1.084969e-01 0.000000e+00  
 -2.776298e-01 -1.147205e-01 0.000000e+00  
 -2.383821e-01 -9.361774e-02 0.000000e+00  
 -2.653709e-01 -1.405988e-01 0.000000e+00  
 -2.196456e-01 -7.664293e-02 0.000000e+00  
 -2.240365e-01 -8.990333e-02 0.000000e+00  
 -2.081804e-01 -7.352248e-02 0.000000e+00  
 -2.025330e-01 -5.848377e-02 0.000000e+00  
 -1.924811e-01 -5.594531e-02 0.000000e+00  
 -1.868282e-01 -4.010749e-02 0.000000e+00  
 -1.715264e-01 -3.683780e-02 0.000000e+00  
 -2.802990e-01 1.078098e-01 0.000000e+00  
 -2.582047e-01 8.497202e-02 0.000000e+00  
 -2.592880e-01 9.946333e-02 0.000000e+00  
 -2.395300e-01 7.768181e-02 0.000000e+00  
 -2.409507e-01 6.030648e-02 0.000000e+00  
 -2.232144e-01 5.193054e-02 0.000000e+00  
 -2.179145e-01 2.716800e-02 0.000000e+00  
 -2.250793e-01 3.473435e-02 0.000000e+00  
 -2.021664e-01 2.799267e-02 0.000000e+00  
 -1.941362e-01 1.306001e-02 0.000000e+00  
 -1.749808e-01 1.285713e-02 0.000000e+00  
 -2.399080e-01 -1.128303e-01 0.000000e+00  
 -2.466366e-01 -1.172325e-01 0.000000e+00  
 -2.484051e-01 -1.322120e-01 0.000000e+00  
 -2.225264e-01 -1.172380e-01 0.000000e+00  
 -2.141406e-01 -1.014006e-01 0.000000e+00  
 -2.364577e-01 -1.408403e-01 0.000000e+00  
 -2.387541e-01 -1.582575e-01 0.000000e+00  
 -2.503611e-01 -1.659721e-01 0.000000e+00  
 -2.333743e-01 -1.889980e-01 0.000000e+00  
 -2.014614e-01 -1.005215e-01 0.000000e+00  
 -1.952553e-01 -8.544503e-02 0.000000e+00  
 -1.844509e-01 -8.250020e-02 0.000000e+00  
 -1.806035e-01 -6.573432e-02 0.000000e+00  
 -1.646060e-01 -6.070710e-02 0.000000e+00  
 -2.693679e-01 1.327760e-01 0.000000e+00  
 -2.562582e-01 1.565770e-01 0.000000e+00  
 -2.483800e-01 1.085631e-01 0.000000e+00  
 -2.488931e-01 1.226000e-01 0.000000e+00  
 -2.311500e-01 8.359237e-02 0.000000e+00  
 -2.308515e-01 1.006524e-01 0.000000e+00  
 -2.136413e-01 5.797559e-02 0.000000e+00  
 -2.141197e-01 7.697180e-02 0.000000e+00  
 -1.979997e-01 5.232616e-02 0.000000e+00  
 -1.946219e-01 3.936819e-02 0.000000e+00  
 -1.718027e-01 3.519821e-02 0.000000e+00  
 -2.179476e-01 -1.267130e-01 0.000000e+00  
 -2.225883e-01 -1.362839e-01 0.000000e+00  
 -1.929337e-01 -1.115736e-01 0.000000e+00  
 -2.021432e-01 -1.266344e-01 0.000000e+00  
 -2.114269e-01 -1.535931e-01 0.000000e+00  
 -2.205303e-01 -1.643807e-01 0.000000e+00  
 -2.184472e-01 -1.768925e-01 0.000000e+00  
 -2.064771e-01 -1.819167e-01 0.000000e+00  
 -2.044536e-01 -2.002283e-01 0.000000e+00  
 -2.146606e-01 -2.100940e-01 0.000000e+00  
 -1.835663e-01 -1.121294e-01 0.000000e+00  
 -1.729470e-01 -9.095262e-02 0.000000e+00  
 -1.725018e-01 -1.011026e-01 0.000000e+00  
 -1.556340e-01 -8.070224e-02 0.000000e+00  
 -2.413017e-01 1.787572e-01 0.000000e+00  
 -2.364059e-01 1.322813e-01 0.000000e+00  
 -2.365183e-01 1.445804e-01 0.000000e+00  
 -2.226159e-01 1.551136e-01 0.000000e+00  
 -2.225754e-01 1.651985e-01 0.000000e+00  
 -2.198084e-01 1.229819e-01 0.000000e+00  
 -2.197003e-01 1.085384e-01 0.000000e+00  
 -2.031776e-01 8.450107e-02 0.000000e+00  
 -2.039672e-01 1.006693e-01 0.000000e+00  
 -1.880758e-01 7.791928e-02 0.000000e+00  
 -1.859626e-01 6.417917e-02 0.000000e+00  
 -1.659945e-01 5.654339e-02 0.000000e+00  
 -2.013134e-01 -1.529614e-01 0.000000e+00  
 -1.933094e-01 -1.400690e-01 0.000000e+00  
 -1.810896e-01 -1.390139e-01 0.000000e+00  
 -1.748054e-01 -1.274610e-01 0.000000e+00  
 -1.907343e-01 -1.675699e-01 0.000000e+00  
 -1.929860e-01 -1.747320e-01 0.000000e+00  
 -1.799317e-01 -1.906326e-01 0.000000e+00  
 -1.870995e-01 -2.021597e-01 0.000000e+00  
 -1.821195e-01 -2.148044e-01 0.000000e+00  
 -1.934475e-01 -2.297335e-01 0.000000e+00  
 -1.580849e-01 -1.256056e-01 0.000000e+00  
 -1.559894e-01 -1.100457e-01 0.000000e+00  
 -1.427971e-01 -1.018268e-01 0.000000e+00  
 -2.251587e-01 1.986237e-01 0.000000e+00  
 -2.075341e-01 1.767535e-01 0.000000e+00  
 -2.081076e-01 1.858303e-01 0.000000e+00  
 -2.063248e-01 1.444239e-01 0.000000e+00  
 -2.062745e-01 1.326702e-01 0.000000e+00  
 -1.922250e-01 1.548577e-01 0.000000e+00  
 -1.926341e-01 1.672201e-01 0.000000e+00  
 -1.904530e-01 1.099650e-01 0.000000e+00  
 -1.909171e-01 1.229922e-01 0.000000e+00  
 -1.760108e-01 1.015237e-01 0.000000e+00  
 -1.750942e-01 8.829797e-02 0.000000e+00  
 -1.566859e-01 7.885613e-02 0.000000e+00  
 -1.709624e-01 -1.524955e-01 0.000000e+00  
 -1.745769e-01 -1.620476e-01 0.000000e+00  
 -1.527351e-01 -1.314928e-01 0.000000e+00  
 -1.581357e-01 -1.490765e-01 0.000000e+00  
 -1.636222e-01 -1.765702e-01 0.000000e+00  
 -1.691246e-01 -1.885425e-01 0.000000e+00  
 -1.576077e-01 -2.021153e-01 0.000000e+00  
 -1.661293e-01 -2.168474e-01 0.000000e+00  
 -1.609163e-01 -2.272012e-01 0.000000e+00  
 -1.723048e-01 -2.458734e-01 0.000000e+00  
 -1.536827e-01 -2.578480e-01 0.000000e+00  
 -1.400463e-01 -1.316368e-01 0.000000e+00  
 -1.285180e-01 -1.192808e-01 0.000000e+00  
 -1.927007e-01 1.987075e-01 0.000000e+00  
 -2.048198e-01 2.197314e-01 0.000000e+00  
 -1.821236e-01 1.967299e-01 0.000000e+00  
 -1.782705e-01 1.771260e-01 0.000000e+00  
 -1.755971e-01 1.337710e-01 0.000000e+00  
 -1.758368e-01 1.450956e-01 0.000000e+00  
 -1.637045e-01 1.547271e-01 0.000000e+00  
 -1.649072e-01 1.719010e-01 0.000000e+00  
 -1.610801e-01 1.234599e-01 0.000000e+00  
 -1.609893e-01 1.117679e-01 0.000000e+00  
 -1.441134e-01 1.000582e-01 0.000000e+00  
 -1.483340e-01 -1.729635e-01 0.000000e+00  
 -1.462470e-01 -1.588382e-01 0.000000e+00  
 -1.305318e-01 -1.510391e-01 0.000000e+00  
 -1.406419e-01 -1.802808e-01 0.000000e+00  
 -1.457988e-01 -2.008108e-01 0.000000e+00  
 -1.391736e-01 -2.062489e-01 0.000000e+00  
 -1.397119e-01 -2.287067e-01 0.000000e+00  
 -1.412412e-01 -2.304054e-01 0.000000e+00  
 -1.402391e-01 -2.415414e-01 0.000000e+00  
 -1.227248e-01 -2.528970e-01 0.000000e+00  
 -1.299573e-01 -2.706500e-01 0.000000e+00  
 -1.275975e-01 -1.517681e-01 0.000000e+00  
 -1.108956e-01 -1.358801e-01 0.000000e+00  
 -1.912820e-01 2.316055e-01 0.000000e+00  
 -1.719979e-01 2.047727e-01 0.000000e+00  
 -1.715011e-01 2.163151e-01 0.000000e+00  
 -1.533192e-01 1.960801e-01 0.000000e+00  
 -1.529256e-01 1.798505e-01 0.000000e+00  
 -1.394270e-01 1.736115e-01 0.000000e+00  
 -1.443585e-01 1.470419e-01 0.000000e+00  
 -1.447266e-01 1.340550e-01 0.000000e+00  
 -1.371136e-01 1.534588e-01 0.000000e+00  
 -1.276220e-01 1.202980e-01 0.000000e+00  
 -1.266469e-01 -1.791184e-01 0.000000e+00  
 -1.195595e-01 -1.641142e-01 0.000000e+00  
 -1.175931e-01 -1.905939e-01 0.000000e+00  
 -1.222658e-01 -2.032017e-01 0.000000e+00  
 -1.180693e-01 -2.265895e-01 0.000000e+00  
 -1.134324e-01 -2.151931e-01 0.000000e+00  
 -1.105098e-01 -2.398370e-01 0.000000e+00  
 -1.143456e-01 -2.494296e-01 0.000000e+00  
 -1.002932e-01 -2.637216e-01 0.000000e+00  
 -1.069349e-01 -2.806068e-01 0.000000e+00  
 -1.052236e-01 -1.644589e-01 0.000000e+00  
 -9.578219e-02 -1.467851e-01 0.000000e+00  
 -1.587701e-01 2.266550e-01 0.000000e+00  
 -1.665744e-01 2.499950e-01 0.000000e+00  
 -1.540990e-01 2.578420e-01 0.000000e+00  
 -1.424994e-01 2.042240e-01 0.000000e+00  
 -1.429372e-01 2.232655e-01 0.000000e+00  
 -1.234218e-01 1.961845e-01 0.000000e+00  
 -1.242063e-01 1.823330e-01 0.000000e+00  
 -1.101481e-01 1.707255e-01 0.000000e+00  
 -1.200719e-01 1.516894e-01 0.000000e+00  
 -1.100177e-01 1.366615e-01 0.000000e+00  
 -8.118691e-02 -2.891276e-01 0.000000e+00  
 -6.032730e-02 -2.939673e-01 0.000000e+00  
 -1.031206e-01 -1.882614e-01 0.000000e+00  
 -9.756729e-02 -1.756447e-01 0.000000e+00  
 -9.836525e-02 -2.126305e-01 0.000000e+00  
 -9.366106e-02 -2.008042e-01 0.000000e+00  
 -8.399026e-02 -2.482194e-01 0.000000e+00  
 -9.327117e-02 -2.359131e-01 0.000000e+00  
 -8.951377e-02 -2.246839e-01 0.000000e+00  
 -8.803130e-02 -2.598951e-01 0.000000e+00  
 -7.627550e-02 -2.724538e-01 0.000000e+00  
 -8.330448e-02 -1.743286e-01 0.000000e+00  
[...]
 POINT_DATA 5993 
 VECTORS Displacement float 
 1.232095e-05 -3.479703e-04 0.000000e+00  
 7.709766e-06 -3.485600e-04 0.000000e+00  
 1.203486e-05 -3.453733e-04 0.000000e+00  
 9.831418e-06 -3.444147e-04 0.000000e+00  
 7.843769e-06 -3.461162e-04 0.000000e+00  
 3.093840e-06 -3.487943e-04 0.000000e+00  
 1.323710e-05 -3.414155e-04 0.000000e+00  
 1.360050e-05 -3.437730e-04 0.000000e+00  
 1.596474e-05 -3.446042e-04 0.000000e+00  
 1.646232e-05 -3.471740e-04 0.000000e+00  
 1.416168e-05 -3.401773e-04 0.000000e+00  
 1.379897e-05 -3.380116e-04 0.000000e+00  
 -1.683081e-06 -3.486701e-04 0.000000e+00  
 3.647588e-06 -3.449081e-04 0.000000e+00  
 5.336459e-06 -3.442215e-04 0.000000e+00  
 1.028452e-05 -3.408802e-04 0.000000e+00  
 6.427997e-06 -3.416959e-04 0.000000e+00  
 9.545090e-06 -3.418804e-04 0.000000e+00  
 2.041942e-06 -3.439853e-04 0.000000e+00  
 -1.012088e-06 -3.452989e-04 0.000000e+00  
 1.116938e-05 -3.369295e-04 0.000000e+00  
 9.976428e-06 -3.384452e-04 0.000000e+00  
 1.093240e-05 -3.351118e-04 0.000000e+00  
 1.685620e-05 -3.408839e-04 0.000000e+00  
 1.731766e-05 -3.430060e-04 0.000000e+00  
 1.980743e-05 -3.438020e-04 0.000000e+00  
 2.049582e-05 -3.461661e-04 0.000000e+00  
 1.785693e-05 -3.395076e-04 0.000000e+00  
 1.507385e-05 -3.363982e-04 0.000000e+00  
 1.733862e-05 -3.373888e-04 0.000000e+00  
 1.471024e-05 -3.346755e-04 0.000000e+00  
 1.236977e-05 -3.334050e-04 0.000000e+00  
 1.211229e-05 -3.319188e-04 0.000000e+00  
 -7.084963e-06 -3.480516e-04 0.000000e+00  
 -2.995852e-06 -3.434431e-04 0.000000e+00  
 -5.666379e-06 -3.440126e-04 0.000000e+00  
 2.882429e-06 -3.393892e-04 0.000000e+00  
 5.584982e-06 -3.396875e-04 0.000000e+00  
 1.825040e-06 -3.404236e-04 0.000000e+00  
 7.046228e-06 -3.375222e-04 0.000000e+00  
 -1.596408e-06 -3.401018e-04 0.000000e+00  
 8.213615e-06 -3.336025e-04 0.000000e+00  
 6.643088e-06 -3.354884e-04 0.000000e+00  
 8.010664e-06 -3.319329e-04 0.000000e+00  
 9.899220e-06 -3.304946e-04 0.000000e+00  
 9.528433e-06 -3.281974e-04 0.000000e+00  
 2.046204e-05 -3.401763e-04 0.000000e+00  
 2.103772e-05 -3.420746e-04 0.000000e+00  
 2.370151e-05 -3.428336e-04 0.000000e+00  
 2.465700e-05 -3.448925e-04 0.000000e+00  
 2.134155e-05 -3.388464e-04 0.000000e+00  
 2.862520e-05 -3.434258e-04 0.000000e+00  
 1.874996e-05 -3.357325e-04 0.000000e+00  
 2.066770e-05 -3.365660e-04 0.000000e+00  
 1.820416e-05 -3.339203e-04 0.000000e+00  
 1.611986e-05 -3.329116e-04 0.000000e+00  
 1.570817e-05 -3.314195e-04 0.000000e+00  
 1.357146e-05 -3.304495e-04 0.000000e+00  
 1.306710e-05 -3.285622e-04 0.000000e+00  
 -1.252891e-05 -3.469020e-04 0.000000e+00  
 -7.555757e-06 -3.421086e-04 0.000000e+00  
 -1.064322e-05 -3.424954e-04 0.000000e+00  
 -5.961300e-06 -3.382797e-04 0.000000e+00  
 -2.526782e-06 -3.385257e-04 0.000000e+00  
 -8.569294e-07 -3.350454e-04 0.000000e+00  
 3.568834e-06 -3.342704e-04 0.000000e+00  
 2.236311e-06 -3.355360e-04 0.000000e+00  
 3.435294e-06 -3.313249e-04 0.000000e+00  
 5.873060e-06 -3.302618e-04 0.000000e+00  
 5.739095e-06 -3.269951e-04 0.000000e+00  
 2.419641e-05 -3.393090e-04 0.000000e+00  
 2.491918e-05 -3.403912e-04 0.000000e+00  
 2.725914e-05 -3.408475e-04 0.000000e+00  
 2.470627e-05 -3.366626e-04 0.000000e+00  
 2.222088e-05 -3.351554e-04 0.000000e+00  
 2.858666e-05 -3.391476e-04 0.000000e+00  
 3.152355e-05 -3.397352e-04 0.000000e+00  
 3.283244e-05 -3.415846e-04 0.000000e+00  
 3.707965e-05 -3.393346e-04 0.000000e+00  
 2.193443e-05 -3.331504e-04 0.000000e+00  
 1.970673e-05 -3.320652e-04 0.000000e+00  
 1.919190e-05 -3.304291e-04 0.000000e+00  
 1.693069e-05 -3.298405e-04 0.000000e+00  
 1.625584e-05 -3.278643e-04 0.000000e+00  
 -1.823837e-05 -3.451241e-04 0.000000e+00  
 -2.408503e-05 -3.426584e-04 0.000000e+00  
 -1.261596e-05 -3.403175e-04 0.000000e+00  
 -1.582943e-05 -3.405679e-04 0.000000e+00  
 -7.135584e-06 -3.365603e-04 0.000000e+00  
 -1.079694e-05 -3.365142e-04 0.000000e+00  
 -1.951139e-06 -3.330747e-04 0.000000e+00  
 -5.705196e-06 -3.329861e-04 0.000000e+00  
 -8.675409e-07 -3.299701e-04 0.000000e+00  
 1.472803e-06 -3.296066e-04 0.000000e+00  
 2.032872e-06 -3.252771e-04 0.000000e+00  
 2.613276e-05 -3.360664e-04 0.000000e+00  
 2.773105e-05 -3.369261e-04 0.000000e+00  
 2.345634e-05 -3.319007e-04 0.000000e+00  
 2.594091e-05 -3.335229e-04 0.000000e+00  
 3.057946e-05 -3.353535e-04 0.000000e+00  
 3.255199e-05 -3.369655e-04 0.000000e+00  
 3.484704e-05 -3.367926e-04 0.000000e+00  
 3.580435e-05 -3.348610e-04 0.000000e+00  
 3.947996e-05 -3.347128e-04 0.000000e+00  
 4.141923e-05 -3.365815e-04 0.000000e+00  
 2.341715e-05 -3.303991e-04 0.000000e+00  
 2.023522e-05 -3.287230e-04 0.000000e+00  
 2.166243e-05 -3.286326e-04 0.000000e+00  
 1.885908e-05 -3.264238e-04 0.000000e+00  
 -2.990031e-05 -3.395004e-04 0.000000e+00  
 -1.810267e-05 -3.378927e-04 0.000000e+00  
 -2.110974e-05 -3.380130e-04 0.000000e+00  
 -2.377316e-05 -3.348217e-04 0.000000e+00  
 -2.638611e-05 -3.348613e-04 0.000000e+00  
 -1.586182e-05 -3.340808e-04 0.000000e+00  
 -1.251483e-05 -3.340649e-04 0.000000e+00  
 -7.211488e-06 -3.305304e-04 0.000000e+00  
 -1.070647e-05 -3.305363e-04 0.000000e+00  
 -5.822183e-06 -3.272486e-04 0.000000e+00  
 -3.101401e-06 -3.271201e-04 0.000000e+00  
 -1.757959e-06 -3.229642e-04 0.000000e+00  
 3.038192e-05 -3.336732e-04 0.000000e+00  
 2.804959e-05 -3.321997e-04 0.000000e+00  
 2.771849e-05 -3.301106e-04 0.000000e+00  
 2.570923e-05 -3.289962e-04 0.000000e+00  
 3.298122e-05 -3.320092e-04 0.000000e+00  
 3.437248e-05 -3.324686e-04 0.000000e+00  
 3.754653e-05 -3.302308e-04 0.000000e+00  
 3.997419e-05 -3.316358e-04 0.000000e+00  
 4.276875e-05 -3.307974e-04 0.000000e+00  
 4.598653e-05 -3.330491e-04 0.000000e+00  
 2.518372e-05 -3.261164e-04 0.000000e+00  
 2.278425e-05 -3.259156e-04 0.000000e+00  
 2.159174e-05 -3.239454e-04 0.000000e+00  
 -3.541677e-05 -3.357556e-04 0.000000e+00  
 -2.950336e-05 -3.311746e-04 0.000000e+00  
 -3.197589e-05 -3.313396e-04 0.000000e+00  
 -2.107572e-05 -3.308719e-04 0.000000e+00  
 -1.816108e-05 -3.308916e-04 0.000000e+00  
 -2.374599e-05 -3.273184e-04 0.000000e+00  
 -2.699903e-05 -3.273714e-04 0.000000e+00  
 -1.275054e-05 -3.272595e-04 0.000000e+00  
 -1.580583e-05 -3.272230e-04 0.000000e+00  
 -1.080899e-05 -3.238574e-04 0.000000e+00  
 -7.938567e-06 -3.239436e-04 0.000000e+00  
 -6.010298e-06 -3.196739e-04 0.000000e+00  
 2.997790e-05 -3.283939e-04 0.000000e+00  
 3.180487e-05 -3.290872e-04 0.000000e+00  
 2.605306e-05 -3.251170e-04 0.000000e+00  
 2.920035e-05 -3.260282e-04 0.000000e+00  
 3.457735e-05 -3.270862e-04 0.000000e+00  
 3.709626e-05 -3.281825e-04 0.000000e+00  
 4.005361e-05 -3.259397e-04 0.000000e+00  
 4.336602e-05 -3.276882e-04 0.000000e+00  
 4.586406e-05 -3.266559e-04 0.000000e+00  
 5.018270e-05 -3.290697e-04 0.000000e+00  
 5.361592e-05 -3.251958e-04 0.000000e+00  
 2.590809e-05 -3.227349e-04 0.000000e+00  
 2.385271e-05 -3.207457e-04 0.000000e+00  
 -3.564354e-05 -3.273374e-04 0.000000e+00  
 -4.157075e-05 -3.306364e-04 0.000000e+00  
 -3.514084e-05 -3.244951e-04 0.000000e+00  
 -2.971706e-05 -3.235357e-04 0.000000e+00  
 -1.838527e-05 -3.232279e-04 0.000000e+00  
 -2.123801e-05 -3.231555e-04 0.000000e+00  
 -2.372944e-05 -3.197850e-04 0.000000e+00  
 -2.832948e-05 -3.199355e-04 0.000000e+00  
 -1.582768e-05 -3.195430e-04 0.000000e+00  
 -1.305921e-05 -3.197636e-04 0.000000e+00  
 -1.033889e-05 -3.154428e-04 0.000000e+00  
 3.371707e-05 -3.240679e-04 0.000000e+00  
 3.087324e-05 -3.237003e-04 0.000000e+00  
 2.914994e-05 -3.205313e-04 0.000000e+00  
 3.519701e-05 -3.224454e-04 0.000000e+00  
 3.977101e-05 -3.234833e-04 0.000000e+00  
 4.104539e-05 -3.220324e-04 0.000000e+00  
 4.646012e-05 -3.221036e-04 0.000000e+00  
 4.686510e-05 -3.224558e-04 0.000000e+00  
 4.969002e-05 -3.221805e-04 0.000000e+00  
 5.297484e-05 -3.180387e-04 0.000000e+00  
 5.761962e-05 -3.197465e-04 0.000000e+00  
 2.922076e-05 -3.199036e-04 0.000000e+00  
 2.608544e-05 -3.164566e-04 0.000000e+00  
 -4.518959e-05 -3.270408e-04 0.000000e+00  
 -3.749978e-05 -3.216907e-04 0.000000e+00  
 -4.084366e-05 -3.215021e-04 0.000000e+00  
 -3.512302e-05 -3.164609e-04 0.000000e+00  
 -3.055241e-05 -3.164974e-04 0.000000e+00  
 -2.884093e-05 -3.126659e-04 0.000000e+00  
 -2.166628e-05 -3.144803e-04 0.000000e+00  
 -1.832372e-05 -3.147960e-04 0.000000e+00  
 -2.333039e-05 -3.122565e-04 0.000000e+00  
 -1.476328e-05 -3.100114e-04 0.000000e+00  
 3.483558e-05 -3.194114e-04 0.000000e+00  
 3.154184e-05 -3.179531e-04 0.000000e+00  
 3.735428e-05 -3.172264e-04 0.000000e+00  
 4.034863e-05 -3.182186e-04 0.000000e+00  
 4.615715e-05 -3.170588e-04 0.000000e+00  
 4.330524e-05 -3.160107e-04 0.000000e+00  
 4.968839e-05 -3.150921e-04 0.000000e+00  
 5.218689e-05 -3.159928e-04 0.000000e+00  
 5.639694e-05 -3.122763e-04 0.000000e+00  
 6.103750e-05 -3.139532e-04 0.000000e+00  
 3.135011e-05 -3.145656e-04 0.000000e+00  
 2.751754e-05 -3.124560e-04 0.000000e+00  
 -4.398485e-05 -3.178476e-04 0.000000e+00  
 -5.093522e-05 -3.200870e-04 0.000000e+00  
 -5.347230e-05 -3.164593e-04 0.000000e+00  
 -3.752114e-05 -3.132445e-04 0.000000e+00  
 -4.308471e-05 -3.132371e-04 0.000000e+00  
 -3.527499e-05 -3.076271e-04 0.000000e+00  
 -3.129818e-05 -3.080184e-04 0.000000e+00  
 -2.796698e-05 -3.038286e-04 0.000000e+00  
 -2.273286e-05 -3.071549e-04 0.000000e+00  
 -1.851457e-05 -3.041576e-04 0.000000e+00  
 6.423209e-05 -3.069189e-04 0.000000e+00  
 6.622521e-05 -3.008056e-04 0.000000e+00  
 3.669021e-05 -3.137373e-04 0.000000e+00  
 3.367155e-05 -3.124840e-04 0.000000e+00  
 4.269518e-05 -3.122420e-04 0.000000e+00  
 3.969161e-05 -3.111533e-04 0.000000e+00  
 5.234290e-05 -3.080008e-04 0.000000e+00  
 4.885023e-05 -3.106496e-04 0.000000e+00  
 4.587648e-05 -3.097625e-04 0.000000e+00  
 5.555548e-05 -3.090079e-04 0.000000e+00  
 5.940085e-05 -3.056153e-04 0.000000e+00  
 3.305816e-05 -3.087220e-04 0.000000e+00  
 2.904914e-05 -3.068109e-04 0.000000e+00  
 -4.473508e-05 -3.111943e-04 0.000000e+00  
 -4.818399e-05 -3.107396e-04 0.000000e+00  
 -5.152740e-05 -3.065984e-04 0.000000e+00  
 -5.781321e-05 -3.088297e-04 0.000000e+00  
 -3.741547e-05 -3.047793e-04 0.000000e+00  
 -4.253012e-05 -3.051039e-04 0.000000e+00  
 -3.619892e-05 -2.996051e-04 0.000000e+00  
 -3.147190e-05 -2.981030e-04 0.000000e+00  
 -2.827609e-05 -3.006811e-04 0.000000e+00  
 -2.234886e-05 -2.965952e-04 0.000000e+00  
 5.830810e-05 -3.016402e-04 0.000000e+00  
 6.201268e-05 -2.980613e-04 0.000000e+00  
 6.659602e-05 -2.988019e-04 0.000000e+00  
 6.851990e-05 -2.904721e-04 0.000000e+00  
 3.884019e-05 -3.072844e-04 0.000000e+00  
 3.571061e-05 -3.061462e-04 0.000000e+00  
 4.204362e-05 -3.043275e-04 0.000000e+00  
 4.497249e-05 -3.051387e-04 0.000000e+00  
 5.469234e-05 -3.006936e-04 0.000000e+00  
 4.794628e-05 -3.027401e-04 0.000000e+00  
 5.149739e-05 -3.036474e-04 0.000000e+00  
 3.470997e-05 -3.019942e-04 0.000000e+00  
 3.010790e-05 -3.004334e-04 0.000000e+00  
 -4.562854e-05 -3.014163e-04 0.000000e+00  
 -5.070315e-05 -3.028309e-04 0.000000e+00  
 -5.377146e-05 -2.996059e-04 0.000000e+00  
 -6.078793e-05 -3.021091e-04 0.000000e+00  
 -6.312704e-05 -2.953096e-04 0.000000e+00  
 -3.992929e-05 -2.956384e-04 0.000000e+00  
 -4.459551e-05 -2.972874e-04 0.000000e+00  
 -3.902511e-05 -2.912227e-04 0.000000e+00  
 -3.389384e-05 -2.895014e-04 0.000000e+00  
 -3.112823e-05 -2.916748e-04 0.000000e+00  
 -2.505523e-05 -2.894569e-04 0.000000e+00  
 6.801978e-05 -2.899790e-04 0.000000e+00  
 6.007695e-05 -2.932862e-04 0.000000e+00  
 5.380879e-05 -2.965898e-04 0.000000e+00  
 5.675989e-05 -2.931251e-04 0.000000e+00  
 6.285924e-05 -2.899225e-04 0.000000e+00  
 4.070997e-05 -2.998803e-04 0.000000e+00  
 3.736779e-05 -2.990403e-04 0.000000e+00  
 4.400707e-05 -2.963461e-04 0.000000e+00  
 4.715980e-05 -2.969769e-04 0.000000e+00  
 4.918277e-05 -2.953973e-04 0.000000e+00  
 3.589229e-05 -2.943295e-04 0.000000e+00  
 3.068808e-05 -2.934695e-04 0.000000e+00  
 6.908362e-05 -2.820088e-04 0.000000e+00  
 -4.853100e-05 -2.928582e-04 0.000000e+00  
 -5.346442e-05 -2.947245e-04 0.000000e+00  
 -5.605324e-05 -2.926784e-04 0.000000e+00  
 -5.671718e-05 -2.864725e-04 0.000000e+00  
 -6.496679e-05 -2.875715e-04 0.000000e+00  
 -4.754646e-05 -2.889128e-04 0.000000e+00  
 -4.243426e-05 -2.872069e-04 0.000000e+00  
 -4.159731e-05 -2.832851e-04 0.000000e+00  
 -3.381146e-05 -2.825842e-04 0.000000e+00  
 -3.549382e-05 -2.813105e-04 0.000000e+00  
 -2.734700e-05 -2.808569e-04 0.000000e+00  
 6.054676e-05 -2.844386e-04 0.000000e+00  
 6.228070e-05 -2.815715e-04 0.000000e+00  
 4.965254e-05 -2.892836e-04 0.000000e+00  
 5.589379e-05 -2.851697e-04 0.000000e+00  
 5.439321e-05 -2.882257e-04 0.000000e+00  
 4.212698e-05 -2.917164e-04 0.000000e+00  
 3.810746e-05 -2.914005e-04 0.000000e+00  
 4.742736e-05 -2.872500e-04 0.000000e+00  
 4.471087e-05 -2.877190e-04 0.000000e+00  
 3.628567e-05 -2.862109e-04 0.000000e+00  
 3.074277e-05 -2.851773e-04 0.000000e+00  
 6.101652e-05 -2.773015e-04 0.000000e+00  
 6.332099e-05 -2.734529e-04 0.000000e+00  
 6.983859e-05 -2.742030e-04 0.000000e+00  
 -5.089985e-05 -2.846071e-04 0.000000e+00  
 -5.616469e-05 -2.855556e-04 0.000000e+00  
 -5.836433e-05 -2.792657e-04 0.000000e+00  
 -6.546478e-05 -2.804632e-04 0.000000e+00  
 -6.639322e-05 -2.730832e-04 0.000000e+00  
 -6.603775e-05 -2.799867e-04 0.000000e+00  
 -4.906227e-05 -2.796685e-04 0.000000e+00  
 -4.450882e-05 -2.791155e-04 0.000000e+00  
 -3.653180e-05 -2.746860e-04 0.000000e+00  
 -4.261299e-05 -2.745132e-04 0.000000e+00  
 -3.508060e-05 -2.726694e-04 0.000000e+00  
 -2.868373e-05 -2.724669e-04 0.000000e+00  
 5.490653e-05 -2.762073e-04 0.000000e+00  
 5.310946e-05 -2.799333e-04 0.000000e+00  
 4.915796e-05 -2.808004e-04 0.000000e+00  
 4.024598e-05 -2.812653e-04 0.000000e+00  
 4.607842e-05 -2.777978e-04 0.000000e+00  
 5.421982e-05 -2.735503e-04 0.000000e+00  
 3.752739e-05 -2.771351e-04 0.000000e+00  
 3.037779e-05 -2.784773e-04 0.000000e+00  
 5.715092e-05 -2.684466e-04 0.000000e+00  
 6.158130e-05 -2.689774e-04 0.000000e+00  
 6.385855e-05 -2.653555e-04 0.000000e+00  
 7.032016e-05 -2.660447e-04 0.000000e+00  
 -5.697439e-05 -2.764172e-04 0.000000e+00  
 -5.163350e-05 -2.759487e-04 0.000000e+00  
 -5.891823e-05 -2.720575e-04 0.000000e+00  
 -6.584679e-05 -2.725707e-04 0.000000e+00  
 -6.602446e-05 -2.678478e-04 0.000000e+00  
 -4.447229e-05 -2.706152e-04 0.000000e+00  
 -4.960795e-05 -2.704454e-04 0.000000e+00  
 -4.218041e-05 -2.661898e-04 0.000000e+00  
 -3.708811e-05 -2.667326e-04 0.000000e+00  
 -3.454967e-05 -2.631801e-04 0.000000e+00  
 -2.917595e-05 -2.637572e-04 0.000000e+00  
 3.826664e-05 -2.730931e-04 0.000000e+00  
 4.619352e-05 -2.723466e-04 0.000000e+00  
 4.879504e-05 -2.708072e-04 0.000000e+00  
 4.335648e-05 -2.706657e-04 0.000000e+00  
 5.003954e-05 -2.646186e-04 0.000000e+00  
 5.498236e-05 -2.641496e-04 0.000000e+00  
 3.503057e-05 -2.690180e-04 0.000000e+00  
 2.937956e-05 -2.704297e-04 0.000000e+00  
 5.653362e-05 -2.603105e-04 0.000000e+00  
 6.192999e-05 -2.602784e-04 0.000000e+00  
 6.342548e-05 -2.575477e-04 0.000000e+00  
 7.050496e-05 -2.579650e-04 0.000000e+00  
 7.045992e-05 -2.512446e-04 0.000000e+00  
 -5.149501e-05 -2.673449e-04 0.000000e+00  
 -5.741683e-05 -2.684320e-04 0.000000e+00  
 -5.954271e-05 -2.643482e-04 0.000000e+00  
 -6.598974e-05 -2.649954e-04 0.000000e+00  
 -5.066347e-05 -2.639368e-04 0.000000e+00  
 -4.401736e-05 -2.617169e-04 0.000000e+00  
 -4.527311e-05 -2.612030e-04 0.000000e+00  
 -3.902956e-05 -2.574532e-04 0.000000e+00  
 -3.684505e-05 -2.581110e-04 0.000000e+00  
 -3.271494e-05 -2.541131e-04 0.000000e+00  
 -2.880266e-05 -2.552246e-04 0.000000e+00  
 4.209241e-05 -2.637773e-04 0.000000e+00  
 3.661694e-05 -2.643481e-04 0.000000e+00  
 4.763342e-05 -2.614483e-04 0.000000e+00  
 4.331359e-05 -2.618722e-04 0.000000e+00  
 5.440657e-05 -2.560413e-04 0.000000e+00  
 4.943546e-05 -2.561610e-04 0.000000e+00  
 3.423469e-05 -2.603156e-04 0.000000e+00  
 2.784342e-05 -2.624476e-04 0.000000e+00  
 5.596914e-05 -2.521829e-04 0.000000e+00  
 6.161066e-05 -2.522131e-04 0.000000e+00  
 6.310095e-05 -2.494808e-04 0.000000e+00  
 6.248326e-05 -2.468913e-04 0.000000e+00  
 6.576916e-05 -2.425107e-04 0.000000e+00  
 7.020700e-05 -2.432763e-04 0.000000e+00  
 -5.777192e-05 -2.603378e-04 0.000000e+00  
 -5.372883e-05 -2.596749e-04 0.000000e+00  
 -5.988322e-05 -2.570498e-04 0.000000e+00  
 -6.595825e-05 -2.577377e-04 0.000000e+00  
 -4.725776e-05 -2.554852e-04 0.000000e+00  
 -5.150887e-05 -2.552693e-04 0.000000e+00  
 -4.111989e-05 -2.526622e-04 0.000000e+00  
 -4.467053e-05 -2.520971e-04 0.000000e+00  
 -3.797145e-05 -2.487318e-04 0.000000e+00  
 -3.496238e-05 -2.494196e-04 0.000000e+00  
 -3.160018e-05 -2.454613e-04 0.000000e+00  
 -2.747649e-05 -2.470068e-04 0.000000e+00  
 4.080642e-05 -2.552311e-04 0.000000e+00  
 3.520640e-05 -2.569198e-04 0.000000e+00  
 4.164376e-05 -2.531915e-04 0.000000e+00  
 4.706388e-05 -2.521763e-04 0.000000e+00  
 5.372077e-05 -2.475849e-04 0.000000e+00  
 4.810710e-05 -2.486199e-04 0.000000e+00  
 3.261672e-05 -2.523013e-04 0.000000e+00  
 2.592401e-05 -2.550339e-04 0.000000e+00  
 5.457263e-05 -2.448465e-04 0.000000e+00  
 5.792135e-05 -2.436448e-04 0.000000e+00  
 5.886801e-05 -2.385774e-04 0.000000e+00  
 6.303419e-05 -2.383856e-04 0.000000e+00  
 6.449599e-05 -2.348528e-04 0.000000e+00  
 6.975265e-05 -2.352901e-04 0.000000e+00  
 -6.578601e-05 -2.510573e-04 0.000000e+00  
 -5.302727e-05 -2.522144e-04 0.000000e+00  
 -5.791660e-05 -2.520434e-04 0.000000e+00  
 -5.919430e-05 -2.498510e-04 0.000000e+00  
 -5.844070e-05 -2.469459e-04 0.000000e+00  
 -5.069688e-05 -2.477157e-04 0.000000e+00  
 -4.612464e-05 -2.482757e-04 0.000000e+00  
 -4.372586e-05 -2.445283e-04 0.000000e+00  
 -3.966152e-05 -2.449362e-04 0.000000e+00  
 -3.319584e-05 -2.416972e-04 0.000000e+00  
 -3.754658e-05 -2.414568e-04 0.000000e+00  
 -3.178518e-05 -2.388101e-04 0.000000e+00  
 -2.851177e-05 -2.380541e-04 0.000000e+00  
 -2.554128e-05 -2.403925e-04 0.000000e+00  
 3.349519e-05 -2.488380e-04 0.000000e+00  
 3.941586e-05 -2.478787e-04 0.000000e+00  
 4.565580e-05 -2.441885e-04 0.000000e+00  
 4.055956e-05 -2.448522e-04 0.000000e+00  
 4.691002e-05 -2.406870e-04 0.000000e+00  
 5.109941e-05 -2.400407e-04 0.000000e+00  
 2.422269e-05 -2.496796e-04 0.000000e+00  
 3.172542e-05 -2.452246e-04 0.000000e+00  
 2.864242e-05 -2.448182e-04 0.000000e+00  
 5.254556e-05 -2.361507e-04 0.000000e+00  
 5.654253e-05 -2.358835e-04 0.000000e+00  
 5.775783e-05 -2.312978e-04 0.000000e+00  
 6.231787e-05 -2.314587e-04 0.000000e+00  
 6.360945e-05 -2.278062e-04 0.000000e+00  
 6.926494e-05 -2.284989e-04 0.000000e+00  
 -6.107434e-05 -2.434256e-04 0.000000e+00  
 -6.549870e-05 -2.442599e-04 0.000000e+00  
 -2.273737e-05 -2.341257e-04 0.000000e+00  
 -5.202157e-05 -2.446692e-04 0.000000e+00  
 -5.361295e-05 -2.441784e-04 0.000000e+00  
 -5.534928e-05 -2.394441e-04 0.000000e+00  
 -5.897405e-05 -2.397466e-04 0.000000e+00  
 -4.808935e-05 -2.405202e-04 0.000000e+00  
 -4.528350e-05 -2.409847e-04 0.000000e+00  
 -3.923359e-05 -2.377048e-04 0.000000e+00  
 -4.238934e-05 -2.373365e-04 0.000000e+00  
 -3.655971e-05 -2.341872e-04 0.000000e+00  
 -3.451026e-05 -2.343541e-04 0.000000e+00  
 -3.141493e-05 -2.310034e-04 0.000000e+00  
 -2.568859e-05 -2.316319e-04 0.000000e+00  
 -2.832342e-05 -2.328629e-04 0.000000e+00  
 3.839292e-05 -2.404186e-04 0.000000e+00  
 3.421726e-05 -2.403714e-04 0.000000e+00  
 4.023972e-05 -2.365663e-04 0.000000e+00  
 4.432501e-05 -2.364555e-04 0.000000e+00  
 4.994329e-05 -2.324461e-04 0.000000e+00  
 4.609474e-05 -2.325170e-04 0.000000e+00  
 2.634720e-05 -2.389130e-04 0.000000e+00  
 2.102174e-05 -2.423469e-04 0.000000e+00  
 1.871439e-05 -2.380012e-04 0.000000e+00  
 2.688039e-05 -2.371680e-04 0.000000e+00  
 3.214765e-05 -2.362876e-04 0.000000e+00  
 1.510151e-05 -2.325438e-04 0.000000e+00  
 1.170002e-05 -2.285758e-04 0.000000e+00  
 5.576161e-05 -2.285371e-04 0.000000e+00  
 5.163107e-05 -2.283947e-04 0.000000e+00  