# vtk DataFile Version 1.0 
PolyMesh 
ASCII 
 
DATASET POLYDATA 
 
POINTS 5993 float 
-2.988563e-01 -2.975447e-02 0.000000e+00  
 -3.003445e-01 9.143581e-05 0.000000e+00  
 -2.819985e-01 -2.768030e-02 0.000000e+00  
 -2.755930e-01 -1.304409e-02 0.000000e+00  
 -2.853450e-01 -4.950531e-04 0.000000e+00  
 -2.989810e-01 2.783141e-02 0.000000e+00  
 -2.573966e-01 -3.585255e-02 0.000000e+00  
 -2.720824e-01 -3.828606e-02 0.000000e+00  
 -2.774470e-01 -5.460429e-02 0.000000e+00  
 -2.946905e-01 -5.800819e-02 0.000000e+00  
 -2.495854e-01 -4.240783e-02 0.000000e+00  
 -2.363112e-01 -4.013353e-02 0.000000e+00  
 -2.953539e-01 5.443323e-02 0.000000e+00  
 -2.766226e-01 2.520405e-02 0.000000e+00  
 -2.732552e-01 1.525981e-02 0.000000e+00  
 -2.543163e-01 -1.576548e-02 0.000000e+00  
 -2.589012e-01 8.925053e-03 0.000000e+00  
 -2.602672e-01 -1.093987e-02 0.000000e+00  
 -2.708704e-01 3.459495e-02 0.000000e+00  
 -2.770280e-01 5.125016e-02 0.000000e+00  
 -2.305229e-01 -2.173520e-02 0.000000e+00  
 -2.398793e-01 -1.363754e-02 0.000000e+00  
 -2.195917e-01 -2.019444e-02 0.000000e+00  
 -2.533738e-01 -6.134584e-02 0.000000e+00  
 -2.668955e-01 -6.422672e-02 0.000000e+00  
 -2.716116e-01 -8.154585e-02 0.000000e+00  
 -2.877562e-01 -8.612524e-02 0.000000e+00  
 -2.442376e-01 -6.880665e-02 0.000000e+00  
 -2.257172e-01 -4.961932e-02 0.000000e+00  
 -2.309934e-01 -6.576345e-02 0.000000e+00  
 -2.149434e-01 -4.742761e-02 0.000000e+00  
 -2.080672e-01 -3.055740e-02 0.000000e+00  
 -1.984606e-01 -2.897843e-02 0.000000e+00  
 -2.888916e-01 8.210676e-02 0.000000e+00  
 -2.663462e-01 6.201040e-02 0.000000e+00  
 -2.684378e-01 7.551570e-02 0.000000e+00  
 -2.457030e-01 3.053745e-02 0.000000e+00  
 -2.474155e-01 1.439108e-02 0.000000e+00  
 -2.512414e-01 3.640051e-02 0.000000e+00  
 -2.350279e-01 5.560982e-03 0.000000e+00  
 -2.491658e-01 5.517462e-02 0.000000e+00  
 -2.118891e-01 -1.753495e-03 0.000000e+00  
 -2.235666e-01 8.250262e-03 0.000000e+00  
 -2.020613e-01 -5.129703e-04 0.000000e+00  
 -1.910261e-01 -1.348028e-02 0.000000e+00  
 -1.750180e-01 -1.181136e-02 0.000000e+00  
 -2.474648e-01 -8.700867e-02 0.000000e+00  
 -2.596867e-01 -9.045867e-02 0.000000e+00  
 -2.636791e-01 -1.084969e-01 0.000000e+00  
 -2.776298e-01 -1.147205e-01 0.000000e+00  
 -2.383821e-01 -9.361774e-02 0.000000e+00  
 -2.653709e-01 -1.405988e-01 0.000000e+00  
 -2.196456e-01 -7.664293e-02 0.000000e+00  
 -2.240365e-01 -8.990333e-02 0.000000e+00  
 -2.081804e-01 -7.352248e-02 0.000000e+00  
 -2.025330e-01 -5.848377e-02 0.000000e+00  
 -1.924811e-01 -5.594531e-02 0.000000e+00  
 -1.868282e-01 -4.010749e-02 0.000000e+00  
 -1.715264e-01 -3.683780e-02 0.000000e+00  
 -2.802990e-01 1.078098e-01 0.000000e+00  
 -2.582047e-01 8.497202e-02 0.000000e+00  
 -2.592880e-01 9.946333e-02 0.000000e+00  
 -2.395300e-01 7.768181e-02 0.000000e+00  
 -2.409507e-01 6.030648e-02 0.000000e+00  
 -2.232144e-01 5.193054e-02 0.000000e+00  
 -2.179145e-01 2.716800e-02 0.000000e+00  
 -2.250793e-01 3.473435e-02 0.000000e+00  
 -2.021664e-01 2.799267e-02 0.000000e+00  
 -1.941362e-01 1.306001e-02 0.000000e+00  
 -1.749808e-01 1.285713e-02 0.000000e+00  
 -2.399080e-01 -1.128303e-01 0.000000e+00  
 -2.466366e-01 -1.172325e-01 0.000000e+00  
 -2.484051e-01 -1.322120e-01 0.000000e+00  
 -2.225264e-01 -1.172380e-01 0.000000e+00  
 -2.141406e-01 -1.014006e-01 0.000000e+00  
 -2.364577e-01 -1.408403e-01 0.000000e+00  
 -2.387541e-01 -1.582575e-01 0.000000e+00  
 -2.503611e-01 -1.659721e-01 0.000000e+00  
 -2.333743e-01 -1.889980e-01 0.000000e+00  
 -2.014614e-01 -1.005215e-01 0.000000e+00  
 -1.952553e-01 -8.544503e-02 0.000000e+00  
 -1.844509e-01 -8.250020e-02 0.000000e+00  
 -1.806035e-01 -6.573432e-02 0.000000e+00  
 -1.646060e-01 -6.070710e-02 0.000000e+00  
 -2.693679e-01 1.327760e-01 0.000000e+00  
 -2.562582e-01 1.565770e-01 0.000000e+00  
 -2.483800e-01 1.085631e-01 0.000000e+00  
 -2.488931e-01 1.226000e-01 0.000000e+00  
 -2.311500e-01 8.359237e-02 0.000000e+00  
 -2.308515e-01 1.006524e-01 0.000000e+00  
 -2.136413e-01 5.797559e-02 0.000000e+00  
 -2.141197e-01 7.697180e-02 0.000000e+00  
 -1.979997e-01 5.232616e-02 0.000000e+00  
 -1.946219e-01 3.936819e-02 0.000000e+00  
 -1.718027e-01 3.519821e-02 0.000000e+00  
 -2.179476e-01 -1.267130e-01 0.000000e+00  
 -2.225883e-01 -1.362839e-01 0.000000e+00  
 -1.929337e-01 -1.115736e-01 0.000000e+00  
 -2.021432e-01 -1.266344e-01 0.000000e+00  
 -2.114269e-01 -1.535931e-01 0.000000e+00  
 -2.205303e-01 -1.643807e-01 0.000000e+00  
 -2.184472e-01 -1.768925e-01 0.000000e+00  
 -2.064771e-01 -1.819167e-01 0.000000e+00  
 -2.044536e-01 -2.002283e-01 0.000000e+00  
 -2.146606e-01 -2.100940e-01 0.000000e+00  
 -1.835663e-01 -1.121294e-01 0.000000e+00  
 -1.729470e-01 -9.095262e-02 0.000000e+00  
 -1.725018e-01 -1.011026e-01 0.000000e+00  
 -1.556340e-01 -8.070224e-02 0.000000e+00  
 -2.413017e-01 1.787572e-01 0.000000e+00  
 -2.364059e-01 1.322813e-01 0.000000e+00  
 -2.365183e-01 1.445804e-01 0.000000e+00  
 -2.226159e-01 1.551136e-01 0.000000e+00  
 -2.225754e-01 1.651985e-01 0.000000e+00  
 -2.198084e-01 1.229819e-01 0.000000e+00  
 -2.197003e-01 1.085384e-01 0.000000e+00  
 -2.031776e-01 8.450107e-02 0.000000e+00  
 -2.039672e-01 1.006693e-01 0.000000e+00  
 -1.880758e-01 7.791928e-02 0.000000e+00  
 -1.859626e-01 6.417917e-02 0.000000e+00  
 -1.659945e-01 5.654339e-02 0.000000e+00  
 -2.013134e-01 -1.529614e-01 0.000000e+00  
 -1.933094e-01 -1.400690e-01 0.000000e+00  
 -1.810896e-01 -1.390139e-01 0.000000e+00  
 -1.748054e-01 -1.274610e-01 0.000000e+00  
 -1.907343e-01 -1.675699e-01 0.000000e+00  
 -1.929860e-01 -1.747320e-01 0.000000e+00  
 -1.799317e-01 -1.906326e-01 0.000000e+00  
 -1.870995e-01 -2.021597e-01 0.000000e+00  
 -1.821195e-01 -2.148044e-01 0.000000e+00  
 -1.934475e-01 -2.297335e-01 0.000000e+00  
 -1.580849e-01 -1.256056e-01 0.000000e+00  
 -1.559894e-01 -1.100457e-01 0.000000e+00  
 -1.427971e-01 -1.018268e-01 0.000000e+00  
 -2.251587e-01 1.986237e-01 0.000000e+00  
 -2.075341e-01 1.767535e-01 0.000000e+00  
 -2.081076e-01 1.858303e-01 0.000000e+00  
 -2.063248e-01 1.444239e-01 0.000000e+00  
 -2.062745e-01 1.326702e-01 0.000000e+00  
 -1.922250e-01 1.548577e-01 0.000000e+00  
 -1.926341e-01 1.672201e-01 0.000000e+00  
 -1.904530e-01 1.099650e-01 0.000000e+00  
 -1.909171e-01 1.229922e-01 0.000000e+00  
 -1.760108e-01 1.015237e-01 0.000000e+00  
 -1.750942e-01 8.829797e-02 0.000000e+00  
 -1.566859e-01 7.885613e-02 0.000000e+00  
 -1.709624e-01 -1.524955e-01 0.000000e+00  
 -1.745769e-01 -1.620476e-01 0.000000e+00  
 -1.527351e-01 -1.314928e-01 0.000000e+00  
 -1.581357e-01 -1.490765e-01 0.000000e+00  
 -1.636222e-01 -1.765702e-01 0.000000e+00  
 -1.691246e-01 -1.885425e-01 0.000000e+00  
 -1.576077e-01 -2.021153e-01 0.000000e+00  
 -1.661293e-01 -2.168474e-01 0.000000e+00  
 -1.609163e-01 -2.272012e-01 0.000000e+00  
 -1.723048e-01 -2.458734e-01 0.000000e+00  
 -1.536827e-01 -2.578480e-01 0.000000e+00  
 -1.400463e-01 -1.316368e-01 0.000000e+00  
 -1.285180e-01 -1.192808e-01 0.000000e+00  
 -1.927007e-01 1.987075e-01 0.000000e+00  
 -2.048198e-01 2.197314e-01 0.000000e+00  
 -1.821236e-01 1.967299e-01 0.000000e+00  
 -1.782705e-01 1.771260e-01 0.000000e+00  
 -1.755971e-01 1.337710e-01 0.000000e+00  
 -1.758368e-01 1.450956e-01 0.000000e+00  
 -1.637045e-01 1.547271e-01 0.000000e+00  
 -1.649072e-01 1.719010e-01 0.000000e+00  
 -1.610801e-01 1.234599e-01 0.000000e+00  
 -1.609893e-01 1.117679e-01 0.000000e+00  
 -1.441134e-01 1.000582e-01 0.000000e+00  
 -1.483340e-01 -1.729635e-01 0.000000e+00  
 -1.462470e-01 -1.588382e-01 0.000000e+00  
 -1.305318e-01 -1.510391e-01 0.000000e+00  
 -1.406419e-01 -1.802808e-01 0.000000e+00  
 -1.457988e-01 -2.008108e-01 0.000000e+00  
 -1.391736e-01 -2.062489e-01 0.000000e+00  
 -1.397119e-01 -2.287067e-01 0.000000e+00  
 -1.412412e-01 -2.304054e-01 0.000000e+00  
 -1.402391e-01 -2.415414e-01 0.000000e+00  
 -1.227248e-01 -2.528970e-01 0.000000e+00  
 -1.299573e-01 -2.706500e-01 0.000000e+00  
 -1.275975e-01 -1.517681e-01 0.000000e+00  
 -1.108956e-01 -1.358801e-01 0.000000e+00  
 -1.912820e-01 2.316055e-01 0.000000e+00  
 -1.719979e-01 2.047727e-01 0.000000e+00  
 -1.715011e-01 2.163151e-01 0.000000e+00  
 -1.533192e-01 1.960801e-01 0.000000e+00  
 -1.529256e-01 1.798505e-01 0.000000e+00  
 -1.394270e-01 1.736115e-01 0.000000e+00  
 -1.443585e-01 1.470419e-01 0.000000e+00  
 -1.447266e-01 1.340550e-01 0.000000e+00  
 -1.371136e-01 1.534588e-01 0.000000e+00  
 -1.276220e-01 1.202980e-01 0.000000e+00  
 -1.266469e-01 -1.791184e-01 0.000000e+00  
 -1.195595e-01 -1.641142e-01 0.000000e+00  
 -1.175931e-01 -1.905939e-01 0.000000e+00  
 -1.222658e-01 -2.032017e-01 0.000000e+00  
 -1.180693e-01 -2.265895e-01 0.000000e+00  
 -1.134324e-01 -2.151931e-01 0.000000e+00  
 -1.105098e-01 -2.398370e-01 0.000000e+00  
 -1.143456e-01 -2.494296e-01 0.000000e+00  
 -1.002932e-01 -2.637216e-01 0.000000e+00  
 -1.069349e-01 -2.806068e-01 0.000000e+00  
 -1.052236e-01 -1.644589e-01 0.000000e+00  
 -9.578219e-02 -1.467851e-01 0.000000e+00  
 -1.587701e-01 2.266550e-01 0.000000e+00  
 -1.665744e-01 2.499950e-01 0.000000e+00  
 -1.540990e-01 2.578420e-01 0.000000e+00  
 -1.424994e-01 2.042240e-01 0.000000e+00  
 -1.429372e-01 2.232655e-01 0.000000e+00  
 -1.234218e-01 1.961845e-01 0.000000e+00  
 -1.242063e-01 1.823330e-01 0.000000e+00  
 -1.101481e-01 1.707255e-01 0.000000e+00  
 -1.200719e-01 1.516894e-01 0.000000e+00  
 -1.100177e-01 1.366615e-01 0.000000e+00  
 -8.118691e-02 -2.891276e-01 0.000000e+00  
 -6.032730e-02 -2.939673e-01 0.000000e+00  
 -1.031206e-01 -1.882614e-01 0.000000e+00  
 -9.756729e-02 -1.756447e-01 0.000000e+00  
 -9.836525e-02 -2.126305e-01 0.000000e+00  
 -9.366106e-02 -2.008042e-01 0.000000e+00  
 -8.399026e-02 -2.482194e-01 0.000000e+00  
 -9.327117e-02 -2.359131e-01 0.000000e+00  
 -8.951377e-02 -2.246839e-01 0.000000e+00  
 -8.803130e-02 -2.598951e-01 0.000000e+00  
 -7.627550e-02 -2.724538e-01 0.000000e+00  
 -8.330448e-02 -1.743286e-01 0.000000e+00  
[...]
 POINT_DATA 5993 
 VECTORS Displacement float 
 4.312333e-06 -1.217896e-04 0.000000e+00  
 2.698418e-06 -1.219960e-04 0.000000e+00  
 4.212202e-06 -1.208806e-04 0.000000e+00  
 3.440996e-06 -1.205451e-04 0.000000e+00  
 2.745319e-06 -1.211407e-04 0.000000e+00  
 1.082844e-06 -1.220780e-04 0.000000e+00  
 4.632985e-06 -1.194954e-04 0.000000e+00  
 4.760176e-06 -1.203205e-04 0.000000e+00  
 5.587659e-06 -1.206115e-04 0.000000e+00  
 5.761813e-06 -1.215109e-04 0.000000e+00  
 4.956587e-06 -1.190621e-04 0.000000e+00  
 4.829640e-06 -1.183040e-04 0.000000e+00  
 -5.890783e-07 -1.220345e-04 0.000000e+00  
 1.276656e-06 -1.207178e-04 0.000000e+00  
 1.867761e-06 -1.204775e-04 0.000000e+00  
 3.599584e-06 -1.193081e-04 0.000000e+00  
 2.249799e-06 -1.195936e-04 0.000000e+00  
 3.340781e-06 -1.196581e-04 0.000000e+00  
 7.146798e-07 -1.203948e-04 0.000000e+00  
 -3.542308e-07 -1.208546e-04 0.000000e+00  
 3.909284e-06 -1.179253e-04 0.000000e+00  
 3.491750e-06 -1.184558e-04 0.000000e+00  
 3.826339e-06 -1.172891e-04 0.000000e+00  
 5.899671e-06 -1.193094e-04 0.000000e+00  
 6.061182e-06 -1.200521e-04 0.000000e+00  
 6.932601e-06 -1.203307e-04 0.000000e+00  
 7.173536e-06 -1.211581e-04 0.000000e+00  
 6.249924e-06 -1.188277e-04 0.000000e+00  
 5.275849e-06 -1.177394e-04 0.000000e+00  
 6.068518e-06 -1.180861e-04 0.000000e+00  
 5.148585e-06 -1.171364e-04 0.000000e+00  
 4.329420e-06 -1.166917e-04 0.000000e+00  
 4.239300e-06 -1.161716e-04 0.000000e+00  
 -2.479737e-06 -1.218181e-04 0.000000e+00  
 -1.048548e-06 -1.202051e-04 0.000000e+00  
 -1.983233e-06 -1.204044e-04 0.000000e+00  
 1.008850e-06 -1.187862e-04 0.000000e+00  
 1.954744e-06 -1.188906e-04 0.000000e+00  
 6.387639e-07 -1.191482e-04 0.000000e+00  
 2.466180e-06 -1.181328e-04 0.000000e+00  
 -5.587427e-07 -1.190356e-04 0.000000e+00  
 2.874765e-06 -1.167609e-04 0.000000e+00  
 2.325081e-06 -1.174209e-04 0.000000e+00  
 2.803732e-06 -1.161765e-04 0.000000e+00  
 3.464727e-06 -1.156731e-04 0.000000e+00  
 3.334952e-06 -1.148691e-04 0.000000e+00  
 7.161713e-06 -1.190617e-04 0.000000e+00  
 7.363203e-06 -1.197261e-04 0.000000e+00  
 8.295527e-06 -1.199918e-04 0.000000e+00  
 8.629950e-06 -1.207124e-04 0.000000e+00  
 7.469543e-06 -1.185962e-04 0.000000e+00  
 1.001882e-05 -1.201990e-04 0.000000e+00  
 6.562487e-06 -1.175064e-04 0.000000e+00  
 7.233694e-06 -1.177981e-04 0.000000e+00  
 6.371455e-06 -1.168721e-04 0.000000e+00  
 5.641950e-06 -1.165191e-04 0.000000e+00  
 5.497860e-06 -1.159968e-04 0.000000e+00  
 4.750011e-06 -1.156573e-04 0.000000e+00  
 4.573486e-06 -1.149968e-04 0.000000e+00  
 -4.385120e-06 -1.214157e-04 0.000000e+00  
 -2.644515e-06 -1.197380e-04 0.000000e+00  
 -3.725127e-06 -1.198734e-04 0.000000e+00  
 -2.086455e-06 -1.183979e-04 0.000000e+00  
 -8.843737e-07 -1.184840e-04 0.000000e+00  
 -2.999253e-07 -1.172659e-04 0.000000e+00  
 1.249092e-06 -1.169946e-04 0.000000e+00  
 7.827090e-07 -1.174376e-04 0.000000e+00  
 1.202353e-06 -1.159637e-04 0.000000e+00  
 2.055571e-06 -1.155916e-04 0.000000e+00  
 2.008683e-06 -1.144483e-04 0.000000e+00  
 8.468745e-06 -1.187582e-04 0.000000e+00  
 8.721714e-06 -1.191369e-04 0.000000e+00  
 9.540698e-06 -1.192966e-04 0.000000e+00  
 8.647193e-06 -1.178319e-04 0.000000e+00  
 7.777309e-06 -1.173044e-04 0.000000e+00  
 1.000533e-05 -1.187017e-04 0.000000e+00  
 1.103324e-05 -1.189073e-04 0.000000e+00  
 1.149135e-05 -1.195546e-04 0.000000e+00  
 1.297788e-05 -1.187671e-04 0.000000e+00  
 7.677052e-06 -1.166026e-04 0.000000e+00  
 6.897357e-06 -1.162228e-04 0.000000e+00  
 6.717165e-06 -1.156502e-04 0.000000e+00  
 5.925743e-06 -1.154442e-04 0.000000e+00  
 5.689544e-06 -1.147525e-04 0.000000e+00  
 -6.383430e-06 -1.207934e-04 0.000000e+00  
 -8.429761e-06 -1.199304e-04 0.000000e+00  
 -4.415587e-06 -1.191111e-04 0.000000e+00  
 -5.540300e-06 -1.191988e-04 0.000000e+00  
 -2.497455e-06 -1.177961e-04 0.000000e+00  
 -3.778928e-06 -1.177800e-04 0.000000e+00  
 -6.828987e-07 -1.165761e-04 0.000000e+00  
 -1.996819e-06 -1.165451e-04 0.000000e+00  
 -3.036393e-07 -1.154895e-04 0.000000e+00  
 5.154809e-07 -1.153623e-04 0.000000e+00  
 7.115052e-07 -1.138470e-04 0.000000e+00  
 9.146466e-06 -1.176232e-04 0.000000e+00  
 9.705867e-06 -1.179241e-04 0.000000e+00  
 8.209719e-06 -1.161652e-04 0.000000e+00  
 9.079317e-06 -1.167330e-04 0.000000e+00  
 1.070281e-05 -1.173737e-04 0.000000e+00  
 1.139320e-05 -1.179379e-04 0.000000e+00  
 1.219646e-05 -1.178774e-04 0.000000e+00  
 1.253152e-05 -1.172013e-04 0.000000e+00  
 1.381799e-05 -1.171495e-04 0.000000e+00  
 1.449673e-05 -1.178035e-04 0.000000e+00  
 8.196003e-06 -1.156397e-04 0.000000e+00  
 7.082326e-06 -1.150531e-04 0.000000e+00  
 7.581850e-06 -1.150214e-04 0.000000e+00  
 6.600676e-06 -1.142483e-04 0.000000e+00  
 -1.046511e-05 -1.188251e-04 0.000000e+00  
 -6.335934e-06 -1.182624e-04 0.000000e+00  
 -7.388408e-06 -1.183045e-04 0.000000e+00  
 -8.320606e-06 -1.171876e-04 0.000000e+00  
 -9.235140e-06 -1.172014e-04 0.000000e+00  
 -5.551637e-06 -1.169283e-04 0.000000e+00  
 -4.380190e-06 -1.169227e-04 0.000000e+00  
 -2.524021e-06 -1.156856e-04 0.000000e+00  
 -3.747265e-06 -1.156877e-04 0.000000e+00  
 -2.037764e-06 -1.145370e-04 0.000000e+00  
 -1.085490e-06 -1.144920e-04 0.000000e+00  
 -6.152858e-07 -1.130375e-04 0.000000e+00  
 1.063367e-05 -1.167856e-04 0.000000e+00  
 9.817355e-06 -1.162699e-04 0.000000e+00  
 9.701473e-06 -1.155387e-04 0.000000e+00  
 8.998231e-06 -1.151487e-04 0.000000e+00  
 1.154343e-05 -1.162032e-04 0.000000e+00  
 1.203037e-05 -1.163640e-04 0.000000e+00  
 1.314129e-05 -1.155808e-04 0.000000e+00  
 1.399097e-05 -1.160725e-04 0.000000e+00  
 1.496906e-05 -1.157791e-04 0.000000e+00  
 1.609529e-05 -1.165672e-04 0.000000e+00  
 8.814303e-06 -1.141407e-04 0.000000e+00  
 7.974486e-06 -1.140705e-04 0.000000e+00  
 7.557108e-06 -1.133809e-04 0.000000e+00  
 -1.239587e-05 -1.175144e-04 0.000000e+00  
 -1.032617e-05 -1.159111e-04 0.000000e+00  
 -1.119156e-05 -1.159689e-04 0.000000e+00  
 -7.376501e-06 -1.158052e-04 0.000000e+00  
 -6.356379e-06 -1.158121e-04 0.000000e+00  
 -8.311096e-06 -1.145614e-04 0.000000e+00  
 -9.449662e-06 -1.145800e-04 0.000000e+00  
 -4.462688e-06 -1.145408e-04 0.000000e+00  
 -5.532042e-06 -1.145281e-04 0.000000e+00  
 -3.783145e-06 -1.133501e-04 0.000000e+00  
 -2.778499e-06 -1.133802e-04 0.000000e+00  
 -2.103604e-06 -1.118859e-04 0.000000e+00  
 1.049226e-05 -1.149379e-04 0.000000e+00  
 1.113170e-05 -1.151805e-04 0.000000e+00  
 9.118570e-06 -1.137910e-04 0.000000e+00  
 1.022012e-05 -1.141099e-04 0.000000e+00  
 1.210207e-05 -1.144802e-04 0.000000e+00  
 1.298369e-05 -1.148639e-04 0.000000e+00  
 1.401876e-05 -1.140789e-04 0.000000e+00  
 1.517811e-05 -1.146909e-04 0.000000e+00  
 1.605242e-05 -1.143296e-04 0.000000e+00  
 1.756394e-05 -1.151744e-04 0.000000e+00  
 1.876557e-05 -1.138185e-04 0.000000e+00  
 9.067831e-06 -1.129572e-04 0.000000e+00  
 8.348450e-06 -1.122610e-04 0.000000e+00  
 -1.247524e-05 -1.145681e-04 0.000000e+00  
 -1.454976e-05 -1.157227e-04 0.000000e+00  
 -1.229930e-05 -1.135733e-04 0.000000e+00  
 -1.040097e-05 -1.132375e-04 0.000000e+00  
 -6.434845e-06 -1.131298e-04 0.000000e+00  
 -7.433305e-06 -1.131044e-04 0.000000e+00  
 -8.305304e-06 -1.119248e-04 0.000000e+00  
 -9.915319e-06 -1.119774e-04 0.000000e+00  
 -5.539688e-06 -1.118400e-04 0.000000e+00  
 -4.570724e-06 -1.119173e-04 0.000000e+00  
 -3.618611e-06 -1.104050e-04 0.000000e+00  
 1.180098e-05 -1.134238e-04 0.000000e+00  
 1.080564e-05 -1.132951e-04 0.000000e+00  
 1.020248e-05 -1.121859e-04 0.000000e+00  
 1.231896e-05 -1.128559e-04 0.000000e+00  
 1.391985e-05 -1.132192e-04 0.000000e+00  
 1.436589e-05 -1.127113e-04 0.000000e+00  
 1.626104e-05 -1.127363e-04 0.000000e+00  
 1.640279e-05 -1.128595e-04 0.000000e+00  
 1.739151e-05 -1.127632e-04 0.000000e+00  
 1.854119e-05 -1.113136e-04 0.000000e+00  
 2.016687e-05 -1.119113e-04 0.000000e+00  
 1.022727e-05 -1.119662e-04 0.000000e+00  
 9.129902e-06 -1.107598e-04 0.000000e+00  
 -1.581636e-05 -1.144643e-04 0.000000e+00  
 -1.312492e-05 -1.125917e-04 0.000000e+00  
 -1.429528e-05 -1.125257e-04 0.000000e+00  
 -1.229306e-05 -1.107613e-04 0.000000e+00  
 -1.069334e-05 -1.107741e-04 0.000000e+00  
 -1.009433e-05 -1.094331e-04 0.000000e+00  
 -7.583198e-06 -1.100681e-04 0.000000e+00  
 -6.413302e-06 -1.101786e-04 0.000000e+00  
 -8.165635e-06 -1.092898e-04 0.000000e+00  
 -5.167149e-06 -1.085040e-04 0.000000e+00  
 1.219245e-05 -1.117940e-04 0.000000e+00  
 1.103965e-05 -1.112836e-04 0.000000e+00  
 1.307400e-05 -1.110292e-04 0.000000e+00  
 1.412202e-05 -1.113765e-04 0.000000e+00  
 1.615500e-05 -1.109706e-04 0.000000e+00  
 1.515683e-05 -1.106037e-04 0.000000e+00  
 1.739094e-05 -1.102822e-04 0.000000e+00  
 1.826541e-05 -1.105975e-04 0.000000e+00  
 1.973893e-05 -1.092967e-04 0.000000e+00  
 2.136312e-05 -1.098836e-04 0.000000e+00  
 1.097254e-05 -1.100980e-04 0.000000e+00  
 9.631140e-06 -1.093596e-04 0.000000e+00  
 -1.539470e-05 -1.112467e-04 0.000000e+00  
 -1.782733e-05 -1.120305e-04 0.000000e+00  
 -1.871530e-05 -1.107608e-04 0.000000e+00  
 -1.313240e-05 -1.096356e-04 0.000000e+00  
 -1.507965e-05 -1.096330e-04 0.000000e+00  
 -1.234625e-05 -1.076695e-04 0.000000e+00  
 -1.095436e-05 -1.078064e-04 0.000000e+00  
 -9.788444e-06 -1.063400e-04 0.000000e+00  
 -7.956502e-06 -1.075042e-04 0.000000e+00  
 -6.480101e-06 -1.064551e-04 0.000000e+00  
 2.248123e-05 -1.074216e-04 0.000000e+00  
 2.317882e-05 -1.052820e-04 0.000000e+00  
 1.284157e-05 -1.098081e-04 0.000000e+00  
 1.178504e-05 -1.093694e-04 0.000000e+00  
 1.494331e-05 -1.092847e-04 0.000000e+00  
 1.389206e-05 -1.089037e-04 0.000000e+00  
 1.832001e-05 -1.078003e-04 0.000000e+00  
 1.709758e-05 -1.087274e-04 0.000000e+00  
 1.605677e-05 -1.084169e-04 0.000000e+00  
 1.944442e-05 -1.081528e-04 0.000000e+00  
 2.079030e-05 -1.069653e-04 0.000000e+00  
 1.157036e-05 -1.080527e-04 0.000000e+00  
 1.016720e-05 -1.073838e-04 0.000000e+00  
 -1.565728e-05 -1.089180e-04 0.000000e+00  
 -1.686440e-05 -1.087588e-04 0.000000e+00  
 -1.803459e-05 -1.073095e-04 0.000000e+00  
 -2.023462e-05 -1.080904e-04 0.000000e+00  
 -1.309542e-05 -1.066728e-04 0.000000e+00  
 -1.488554e-05 -1.067864e-04 0.000000e+00  
 -1.266962e-05 -1.048618e-04 0.000000e+00  
 -1.101517e-05 -1.043360e-04 0.000000e+00  
 -9.896630e-06 -1.052384e-04 0.000000e+00  
 -7.822101e-06 -1.038083e-04 0.000000e+00  
 2.040784e-05 -1.055741e-04 0.000000e+00  
 2.170444e-05 -1.043215e-04 0.000000e+00  
 2.330861e-05 -1.045807e-04 0.000000e+00  
 2.398197e-05 -1.016652e-04 0.000000e+00  
 1.359407e-05 -1.075495e-04 0.000000e+00  
 1.249872e-05 -1.071512e-04 0.000000e+00  
 1.471527e-05 -1.065146e-04 0.000000e+00  
 1.574037e-05 -1.067986e-04 0.000000e+00  
 1.914232e-05 -1.052427e-04 0.000000e+00  
 1.678120e-05 -1.059590e-04 0.000000e+00  
 1.802409e-05 -1.062766e-04 0.000000e+00  
 1.214849e-05 -1.056980e-04 0.000000e+00  
 1.053776e-05 -1.051517e-04 0.000000e+00  
 -1.596999e-05 -1.054957e-04 0.000000e+00  
 -1.774610e-05 -1.059908e-04 0.000000e+00  
 -1.882001e-05 -1.048621e-04 0.000000e+00  
 -2.127577e-05 -1.057382e-04 0.000000e+00  
 -2.209447e-05 -1.033584e-04 0.000000e+00  
 -1.397525e-05 -1.034734e-04 0.000000e+00  
 -1.560843e-05 -1.040506e-04 0.000000e+00  
 -1.365879e-05 -1.019280e-04 0.000000e+00  
 -1.186285e-05 -1.013255e-04 0.000000e+00  
 -1.089488e-05 -1.020862e-04 0.000000e+00  
 -8.769329e-06 -1.013099e-04 0.000000e+00  
 2.380692e-05 -1.014926e-04 0.000000e+00  
 2.102693e-05 -1.026502e-04 0.000000e+00  
 1.883308e-05 -1.038064e-04 0.000000e+00  
 1.986596e-05 -1.025938e-04 0.000000e+00  
 2.200073e-05 -1.014729e-04 0.000000e+00  
 1.424849e-05 -1.049581e-04 0.000000e+00  
 1.307873e-05 -1.046641e-04 0.000000e+00  
 1.540247e-05 -1.037211e-04 0.000000e+00  
 1.650593e-05 -1.039419e-04 0.000000e+00  
 1.721397e-05 -1.033890e-04 0.000000e+00  
 1.256230e-05 -1.030153e-04 0.000000e+00  
 1.074083e-05 -1.027143e-04 0.000000e+00  
 2.417927e-05 -9.870307e-05 0.000000e+00  
 -1.698585e-05 -1.025004e-04 0.000000e+00  
 -1.871255e-05 -1.031536e-04 0.000000e+00  
 -1.961863e-05 -1.024374e-04 0.000000e+00  
 -1.985101e-05 -1.002654e-04 0.000000e+00  
 -2.273838e-05 -1.006500e-04 0.000000e+00  
 -1.664126e-05 -1.011195e-04 0.000000e+00  
 -1.485199e-05 -1.005224e-04 0.000000e+00  
 -1.455906e-05 -9.914980e-05 0.000000e+00  
 -1.183401e-05 -9.890447e-05 0.000000e+00  
 -1.242284e-05 -9.845868e-05 0.000000e+00  
 -9.571450e-06 -9.829993e-05 0.000000e+00  
 2.119137e-05 -9.955350e-05 0.000000e+00  
 2.179825e-05 -9.855004e-05 0.000000e+00  
 1.737839e-05 -1.012493e-04 0.000000e+00  
 1.956282e-05 -9.980939e-05 0.000000e+00  
 1.903762e-05 -1.008790e-04 0.000000e+00  
 1.474444e-05 -1.021007e-04 0.000000e+00  
 1.333761e-05 -1.019902e-04 0.000000e+00  
 1.659958e-05 -1.005375e-04 0.000000e+00  
 1.564880e-05 -1.007016e-04 0.000000e+00  
 1.269999e-05 -1.001738e-04 0.000000e+00  
 1.075997e-05 -9.981205e-05 0.000000e+00  
 2.135578e-05 -9.705553e-05 0.000000e+00  
 2.216235e-05 -9.570851e-05 0.000000e+00  
 2.444351e-05 -9.597106e-05 0.000000e+00  
 -1.781495e-05 -9.961250e-05 0.000000e+00  
 -1.965764e-05 -9.994444e-05 0.000000e+00  
 -2.042752e-05 -9.774298e-05 0.000000e+00  
 -2.291267e-05 -9.816213e-05 0.000000e+00  
 -2.323763e-05 -9.557913e-05 0.000000e+00  
 -2.311321e-05 -9.799535e-05 0.000000e+00  
 -1.717179e-05 -9.788396e-05 0.000000e+00  
 -1.557809e-05 -9.769043e-05 0.000000e+00  
 -1.278613e-05 -9.614009e-05 0.000000e+00  
 -1.491455e-05 -9.607961e-05 0.000000e+00  
 -1.227821e-05 -9.543428e-05 0.000000e+00  
 -1.003931e-05 -9.536342e-05 0.000000e+00  
 1.921728e-05 -9.667255e-05 0.000000e+00  
 1.858831e-05 -9.797665e-05 0.000000e+00  
 1.720529e-05 -9.828013e-05 0.000000e+00  
 1.408609e-05 -9.844286e-05 0.000000e+00  
 1.612745e-05 -9.722924e-05 0.000000e+00  
 1.897694e-05 -9.574259e-05 0.000000e+00  
 1.313459e-05 -9.699730e-05 0.000000e+00  
 1.063223e-05 -9.746705e-05 0.000000e+00  
 2.000282e-05 -9.395632e-05 0.000000e+00  
 2.155346e-05 -9.414207e-05 0.000000e+00  
 2.235049e-05 -9.287442e-05 0.000000e+00  
 2.461205e-05 -9.311563e-05 0.000000e+00  
 -1.994104e-05 -9.674602e-05 0.000000e+00  
 -1.807173e-05 -9.658204e-05 0.000000e+00  
 -2.062138e-05 -9.522014e-05 0.000000e+00  
 -2.304638e-05 -9.539975e-05 0.000000e+00  
 -2.310856e-05 -9.374673e-05 0.000000e+00  
 -1.556530e-05 -9.471531e-05 0.000000e+00  
 -1.736278e-05 -9.465589e-05 0.000000e+00  
 -1.476314e-05 -9.316642e-05 0.000000e+00  
 -1.298084e-05 -9.335642e-05 0.000000e+00  
 -1.209238e-05 -9.211303e-05 0.000000e+00  
 -1.021158e-05 -9.231501e-05 0.000000e+00  
 1.339332e-05 -9.558258e-05 0.000000e+00  
 1.616773e-05 -9.532131e-05 0.000000e+00  
 1.707826e-05 -9.478251e-05 0.000000e+00  
 1.517477e-05 -9.473300e-05 0.000000e+00  
 1.751384e-05 -9.261653e-05 0.000000e+00  
 1.924383e-05 -9.245237e-05 0.000000e+00  
 1.226070e-05 -9.415629e-05 0.000000e+00  
 1.028285e-05 -9.465040e-05 0.000000e+00  
 1.978677e-05 -9.110867e-05 0.000000e+00  
 2.167550e-05 -9.109743e-05 0.000000e+00  
 2.219892e-05 -9.014169e-05 0.000000e+00  
 2.467674e-05 -9.028773e-05 0.000000e+00  
 2.466097e-05 -8.793563e-05 0.000000e+00  
 -1.802325e-05 -9.357072e-05 0.000000e+00  
 -2.009589e-05 -9.395121e-05 0.000000e+00  
 -2.083995e-05 -9.252185e-05 0.000000e+00  
 -2.309641e-05 -9.274839e-05 0.000000e+00  
 -1.773222e-05 -9.237789e-05 0.000000e+00  
 -1.540607e-05 -9.160092e-05 0.000000e+00  
 -1.584559e-05 -9.142103e-05 0.000000e+00  
 -1.366035e-05 -9.010861e-05 0.000000e+00  
 -1.289577e-05 -9.033884e-05 0.000000e+00  
 -1.145023e-05 -8.893958e-05 0.000000e+00  
 -1.008093e-05 -8.932860e-05 0.000000e+00  
 1.473235e-05 -9.232205e-05 0.000000e+00  
 1.281593e-05 -9.252184e-05 0.000000e+00  
 1.667170e-05 -9.150690e-05 0.000000e+00  
 1.515976e-05 -9.165525e-05 0.000000e+00  
 1.904230e-05 -8.961446e-05 0.000000e+00  
 1.730241e-05 -8.965636e-05 0.000000e+00  
 1.198214e-05 -9.111045e-05 0.000000e+00  
 9.745196e-06 -9.185666e-05 0.000000e+00  
 1.958920e-05 -8.826401e-05 0.000000e+00  
 2.156373e-05 -8.827458e-05 0.000000e+00  
 2.208533e-05 -8.731829e-05 0.000000e+00  
 2.186914e-05 -8.641194e-05 0.000000e+00  
 2.301920e-05 -8.487873e-05 0.000000e+00  
 2.457245e-05 -8.514671e-05 0.000000e+00  
 -2.022017e-05 -9.111823e-05 0.000000e+00  
 -1.880509e-05 -9.088621e-05 0.000000e+00  
 -2.095913e-05 -8.996744e-05 0.000000e+00  
 -2.308539e-05 -9.020819e-05 0.000000e+00  
 -1.654021e-05 -8.941981e-05 0.000000e+00  
 -1.802810e-05 -8.934425e-05 0.000000e+00  
 -1.439196e-05 -8.843177e-05 0.000000e+00  
 -1.563468e-05 -8.823398e-05 0.000000e+00  
 -1.329001e-05 -8.705614e-05 0.000000e+00  
 -1.223683e-05 -8.729685e-05 0.000000e+00  
 -1.106006e-05 -8.591147e-05 0.000000e+00  
 -9.616771e-06 -8.645237e-05 0.000000e+00  
 1.428225e-05 -8.933088e-05 0.000000e+00  
 1.232224e-05 -8.992193e-05 0.000000e+00  
 1.457532e-05 -8.861701e-05 0.000000e+00  
 1.647236e-05 -8.826170e-05 0.000000e+00  
 1.880227e-05 -8.665470e-05 0.000000e+00  
 1.683748e-05 -8.701695e-05 0.000000e+00  
 1.141585e-05 -8.830544e-05 0.000000e+00  
 9.073405e-06 -8.926186e-05 0.000000e+00  
 1.910042e-05 -8.569628e-05 0.000000e+00  
 2.027247e-05 -8.527570e-05 0.000000e+00  
 2.060380e-05 -8.350209e-05 0.000000e+00  
 2.206197e-05 -8.343494e-05 0.000000e+00  
 2.257360e-05 -8.219849e-05 0.000000e+00  
 2.441343e-05 -8.235153e-05 0.000000e+00  
 -2.302510e-05 -8.787006e-05 0.000000e+00  
 -1.855954e-05 -8.827504e-05 0.000000e+00  
 -2.027081e-05 -8.821518e-05 0.000000e+00  
 -2.071800e-05 -8.744784e-05 0.000000e+00  
 -2.045425e-05 -8.643106e-05 0.000000e+00  
 -1.774391e-05 -8.670048e-05 0.000000e+00  
 -1.614363e-05 -8.689651e-05 0.000000e+00  
 -1.530405e-05 -8.558489e-05 0.000000e+00  
 -1.388153e-05 -8.572766e-05 0.000000e+00  
 -1.161855e-05 -8.459400e-05 0.000000e+00  
 -1.314130e-05 -8.450989e-05 0.000000e+00  
 -1.112481e-05 -8.358354e-05 0.000000e+00  
 -9.979119e-06 -8.331894e-05 0.000000e+00  
 -8.939449e-06 -8.413738e-05 0.000000e+00  
 1.172332e-05 -8.709330e-05 0.000000e+00  
 1.379555e-05 -8.675756e-05 0.000000e+00  
 1.597953e-05 -8.546598e-05 0.000000e+00  
 1.419584e-05 -8.569828e-05 0.000000e+00  
 1.641851e-05 -8.424044e-05 0.000000e+00  
 1.788479e-05 -8.401426e-05 0.000000e+00  
 8.477940e-06 -8.738784e-05 0.000000e+00  
 1.110390e-05 -8.582861e-05 0.000000e+00  
 1.002485e-05 -8.568637e-05 0.000000e+00  
 1.839094e-05 -8.265274e-05 0.000000e+00  
 1.978989e-05 -8.255924e-05 0.000000e+00  
 2.021524e-05 -8.095425e-05 0.000000e+00  
 2.181126e-05 -8.101054e-05 0.000000e+00  
 2.226331e-05 -7.973217e-05 0.000000e+00  
 2.424273e-05 -7.997462e-05 0.000000e+00  
 -2.137602e-05 -8.519896e-05 0.000000e+00  
 -2.292454e-05 -8.549096e-05 0.000000e+00  
 -7.958080e-06 -8.194399e-05 0.000000e+00  
 -1.820755e-05 -8.563422e-05 0.000000e+00  
 -1.876453e-05 -8.546244e-05 0.000000e+00  
 -1.937225e-05 -8.380543e-05 0.000000e+00  
 -2.064092e-05 -8.391131e-05 0.000000e+00  
 -1.683127e-05 -8.418208e-05 0.000000e+00  
 -1.584923e-05 -8.434464e-05 0.000000e+00  
 -1.373176e-05 -8.319667e-05 0.000000e+00  
 -1.483627e-05 -8.306778e-05 0.000000e+00  
 -1.279590e-05 -8.196552e-05 0.000000e+00  
 -1.207859e-05 -8.202395e-05 0.000000e+00  
 -1.099523e-05 -8.085120e-05 0.000000e+00  
 -8.991008e-06 -8.107116e-05 0.000000e+00  
 -9.913198e-06 -8.150200e-05 0.000000e+00  
 1.343752e-05 -8.414652e-05 0.000000e+00  
 1.197604e-05 -8.412998e-05 0.000000e+00  
 1.408390e-05 -8.279819e-05 0.000000e+00  
 1.551375e-05 -8.275942e-05 0.000000e+00  
 1.748015e-05 -8.135614e-05 0.000000e+00  
 1.613316e-05 -8.138093e-05 0.000000e+00  
 9.221520e-06 -8.361956e-05 0.000000e+00  
 7.357608e-06 -8.482142e-05 0.000000e+00  
 6.550038e-06 -8.330041e-05 0.000000e+00  
 9.408138e-06 -8.300879e-05 0.000000e+00  
 1.125168e-05 -8.270065e-05 0.000000e+00  
 5.285530e-06 -8.139033e-05 0.000000e+00  
 4.095008e-06 -8.000152e-05 0.000000e+00  
 1.951656e-05 -7.998800e-05 0.000000e+00  
 1.807088e-05 -7.993815e-05 0.000000e+00  