# vtk DataFile Version 1.0 
PolyMesh 
ASCII 
 
DATASET POLYDATA 
 
POINTS 2399 float 
-2.945419e-01 -6.114109e-02 0.000000e+00  
 -2.833659e-01 -1.002182e-01 0.000000e+00  
 -2.628798e-01 -5.394192e-02 0.000000e+00  
 -3.003368e-01 -1.583483e-02 0.000000e+00  
 -2.634402e-01 -1.511074e-02 0.000000e+00  
 -2.541725e-01 -3.276748e-02 0.000000e+00  
 -2.651123e-01 -1.419225e-01 0.000000e+00  
 -2.407416e-01 -1.269053e-01 0.000000e+00  
 -2.495838e-01 -9.255854e-02 0.000000e+00  
 -2.408505e-01 -8.081277e-02 0.000000e+00  
 -2.198555e-01 -3.394909e-02 0.000000e+00  
 -2.146224e-01 -5.076795e-02 0.000000e+00  
 -2.995527e-01 2.736334e-02 0.000000e+00  
 -2.536565e-01 5.821792e-03 0.000000e+00  
 -2.624840e-01 2.403432e-02 0.000000e+00  
 -2.215857e-01 5.340904e-03 0.000000e+00  
 -2.127265e-01 -2.071332e-02 0.000000e+00  
 -1.748555e-01 -1.778400e-02 0.000000e+00  
 -2.422146e-01 -1.784952e-01 0.000000e+00  
 -2.217949e-01 -1.313483e-01 0.000000e+00  
 -2.194004e-01 -1.621699e-01 0.000000e+00  
 -2.121858e-01 -1.248327e-01 0.000000e+00  
 -2.082955e-01 -9.747976e-02 0.000000e+00  
 -1.937570e-01 -6.142322e-02 0.000000e+00  
 -1.945297e-01 -8.949199e-02 0.000000e+00  
 -1.687355e-01 -4.889475e-02 0.000000e+00  
 -2.925393e-01 6.988529e-02 0.000000e+00  
 -2.493896e-01 4.919281e-02 0.000000e+00  
 -2.548742e-01 6.129516e-02 0.000000e+00  
 -2.185899e-01 4.341094e-02 0.000000e+00  
 -2.125287e-01 1.934669e-02 0.000000e+00  
 -1.750427e-01 1.639031e-02 0.000000e+00  
 -2.799308e-01 1.098758e-01 0.000000e+00  
 -2.127035e-01 -2.127210e-01 0.000000e+00  
 -1.956320e-01 -1.700571e-01 0.000000e+00  
 -1.927445e-01 -1.939612e-01 0.000000e+00  
 -1.810619e-01 -1.344760e-01 0.000000e+00  
 -1.819952e-01 -1.585052e-01 0.000000e+00  
 -1.728730e-01 -1.277919e-01 0.000000e+00  
 -1.722167e-01 -9.895417e-02 0.000000e+00  
 -1.527861e-01 -8.761306e-02 0.000000e+00  
 -2.396911e-01 9.366210e-02 0.000000e+00  
 -2.080434e-01 8.159331e-02 0.000000e+00  
 -2.054584e-01 5.883411e-02 0.000000e+00  
 -1.688848e-01 4.863352e-02 0.000000e+00  
 -2.287613e-01 1.280796e-01 0.000000e+00  
 -2.615913e-01 1.484942e-01 0.000000e+00  
 -1.688469e-01 -2.011783e-01 0.000000e+00  
 -1.634019e-01 -2.237168e-01 0.000000e+00  
 -1.772862e-01 -2.431418e-01 0.000000e+00  
 -1.497254e-01 -1.715495e-01 0.000000e+00  
 -1.500635e-01 -1.830362e-01 0.000000e+00  
 -1.414315e-01 -1.625610e-01 0.000000e+00  
 -1.441533e-01 -1.337277e-01 0.000000e+00  
 -1.291189e-01 -1.198229e-01 0.000000e+00  
 -2.149258e-01 1.335419e-01 0.000000e+00  
 -1.903967e-01 1.169352e-01 0.000000e+00  
 -1.912992e-01 9.602425e-02 0.000000e+00  
 -1.569681e-01 7.911612e-02 0.000000e+00  
 -2.075695e-01 1.622029e-01 0.000000e+00  
 -2.395276e-01 1.816851e-01 0.000000e+00  
 -1.252641e-01 -2.040217e-01 0.000000e+00  
 -1.329093e-01 -2.249363e-01 0.000000e+00  
 -1.258186e-01 -2.383378e-01 0.000000e+00  
 -1.387378e-01 -2.669152e-01 0.000000e+00  
 -1.030949e-01 -2.823406e-01 0.000000e+00  
 -6.471253e-02 -2.935287e-01 0.000000e+00  
 -1.023051e-01 -1.933164e-01 0.000000e+00  
 -1.111539e-01 -1.638529e-01 0.000000e+00  
 -9.850651e-02 -1.460544e-01 0.000000e+00  
 -1.972328e-01 1.670671e-01 0.000000e+00  
 -1.730558e-01 1.593664e-01 0.000000e+00  
 -1.641208e-01 1.415567e-01 0.000000e+00  
 -1.665948e-01 1.309113e-01 0.000000e+00  
 -1.413758e-01 1.039794e-01 0.000000e+00  
 -1.915525e-01 2.018400e-01 0.000000e+00  
 -2.072055e-01 2.184078e-01 0.000000e+00  
 -9.327559e-02 -2.406604e-01 0.000000e+00  
 -8.685859e-02 -2.272719e-01 0.000000e+00  
 -8.919344e-02 -2.518323e-01 0.000000e+00  
 -5.836071e-02 -2.623682e-01 0.000000e+00  
 -6.045042e-02 -2.939550e-01 0.000000e+00  
 -6.067339e-02 -2.193768e-01 0.000000e+00  
 -6.955057e-02 -1.830823e-01 0.000000e+00  
 -5.581883e-02 -2.047787e-01 0.000000e+00  
 -6.351386e-02 -1.642820e-01 0.000000e+00  
 -1.544918e-01 1.850243e-01 0.000000e+00  
 -1.620033e-01 2.017077e-01 0.000000e+00  
 -1.297079e-01 1.772258e-01 0.000000e+00  
 -1.292749e-01 1.515405e-01 0.000000e+00  
 -1.127923e-01 1.356279e-01 0.000000e+00  
 -1.520686e-01 2.207560e-01 0.000000e+00  
 -1.686404e-01 2.490465e-01 0.000000e+00  
 -4.111260e-02 -2.445013e-01 0.000000e+00  
 -4.128687e-02 -2.489298e-01 0.000000e+00  
 -1.924072e-02 -2.660108e-01 0.000000e+00  
 -2.192508e-02 -2.978075e-01 0.000000e+00  
 3.895959e-06 -3.000004e-01 0.000000e+00  
 1.728280e-02 -3.017283e-01 0.000000e+00  
 -1.314812e-02 -2.188168e-01 0.000000e+00  
 -2.658380e-02 -1.975302e-01 0.000000e+00  
 -1.975264e-02 -1.747153e-01 0.000000e+00  
 -8.378610e-02 1.547473e-01 0.000000e+00  
 -1.135934e-01 1.896519e-01 0.000000e+00  
 -1.253781e-01 2.221472e-01 0.000000e+00  
 -9.915114e-02 1.875088e-01 0.000000e+00  
 -1.138140e-01 2.372968e-01 0.000000e+00  
 -1.323799e-01 2.699798e-01 0.000000e+00  
 5.428828e-02 -3.054288e-01 0.000000e+00  
 8.148013e-03 -2.551627e-01 0.000000e+00  
 5.660326e-04 -2.222198e-01 0.000000e+00  
 2.020496e-02 -2.616214e-01 0.000000e+00  
 3.298719e-02 -2.583809e-01 0.000000e+00  
 5.783483e-02 -2.758281e-01 0.000000e+00  
 1.851569e-02 -2.097292e-01 0.000000e+00  
 1.493035e-02 -1.752519e-01 0.000000e+00  
 -5.001531e-02 1.689926e-01 0.000000e+00  
 -7.853606e-02 2.046108e-01 0.000000e+00  
 -5.483634e-02 1.921819e-01 0.000000e+00  
 -7.906880e-02 2.198383e-01 0.000000e+00  
 -9.960737e-02 2.381472e-01 0.000000e+00  
 -8.138432e-02 2.662809e-01 0.000000e+00  
 -8.873463e-02 2.877020e-01 0.000000e+00  
 -5.971033e-02 2.940290e-01 0.000000e+00  
 9.583867e-02 -3.095839e-01 0.000000e+00  
 7.932272e-02 -2.643958e-01 0.000000e+00  
 9.801522e-02 -2.749425e-01 0.000000e+00  
 4.850620e-02 -2.287998e-01 0.000000e+00  
 4.458395e-02 -2.179811e-01 0.000000e+00  
 7.773234e-02 -2.399054e-01 0.000000e+00  
 6.017823e-02 -1.964624e-01 0.000000e+00  
 5.105775e-02 -1.684743e-01 0.000000e+00  
 -1.053973e-02 1.756560e-01 0.000000e+00  
 -3.236022e-02 2.123353e-01 0.000000e+00  
 -1.252421e-02 1.998531e-01 0.000000e+00  
 -3.466853e-02 2.263229e-01 0.000000e+00  
 -5.296155e-02 2.378554e-01 0.000000e+00  
 -5.589933e-02 2.553733e-01 0.000000e+00  
 -3.646163e-02 2.744242e-01 0.000000e+00  
 -3.863215e-02 2.961368e-01 0.000000e+00  
 1.347944e-01 -3.134794e-01 0.000000e+00  
 1.177328e-01 -2.663496e-01 0.000000e+00  
 1.385229e-01 -2.778004e-01 0.000000e+00  
 1.197488e-01 -2.344849e-01 0.000000e+00  
 9.592590e-02 -2.245207e-01 0.000000e+00  
 9.147255e-02 -2.007117e-01 0.000000e+00  
 1.011113e-01 -1.877223e-01 0.000000e+00  
 8.501431e-02 -1.537288e-01 0.000000e+00  
 2.536013e-02 1.740315e-01 0.000000e+00  
 1.111319e-02 2.151421e-01 0.000000e+00  
 2.993275e-02 1.999742e-01 0.000000e+00  
 -9.995206e-03 2.463428e-01 0.000000e+00  
 1.111169e-02 2.302538e-01 0.000000e+00  
 -1.087964e-02 2.584582e-01 0.000000e+00  
 9.764208e-03 2.773079e-01 0.000000e+00  
 8.211866e-03 3.008212e-01 0.000000e+00  
 1.750368e-01 -3.175037e-01 0.000000e+00  
 1.110925e-01 -1.361724e-01 0.000000e+00  
 1.567899e-01 -2.699608e-01 0.000000e+00  
 1.791097e-01 -2.842381e-01 0.000000e+00  
 1.363381e-01 -2.260437e-01 0.000000e+00  
 1.612391e-01 -2.430938e-01 0.000000e+00  
 1.411750e-01 -2.029535e-01 0.000000e+00  
 1.243755e-01 -1.845237e-01 0.000000e+00  
 1.336567e-01 -1.606583e-01 0.000000e+00  
 1.365711e-01 -1.107869e-01 0.000000e+00  
 4.941295e-02 2.073271e-01 0.000000e+00  
 6.958845e-02 1.872888e-01 0.000000e+00  
 6.219952e-02 1.645691e-01 0.000000e+00  
 3.583617e-02 2.464417e-01 0.000000e+00  
 5.642788e-02 2.282579e-01 0.000000e+00  
 3.636633e-02 2.612181e-01 0.000000e+00  
 7.374221e-02 2.331994e-01 0.000000e+00  
 5.420225e-02 2.756626e-01 0.000000e+00  
 5.118849e-02 3.051188e-01 0.000000e+00  
 2.174039e-01 -3.217404e-01 0.000000e+00  
 1.990013e-01 -2.754386e-01 0.000000e+00  
 2.206681e-01 -2.904124e-01 0.000000e+00  
 1.555441e-01 -8.197044e-02 0.000000e+00  
 1.566733e-01 -1.546440e-01 0.000000e+00  
 1.616419e-01 -1.312259e-01 0.000000e+00  
 1.818679e-01 -2.339200e-01 0.000000e+00  
 2.028602e-01 -2.500787e-01 0.000000e+00  
 1.856308e-01 -2.104992e-01 0.000000e+00  
 1.684430e-01 -1.945107e-01 0.000000e+00  
 1.727402e-01 -1.699243e-01 0.000000e+00  
 1.830246e-01 -1.216591e-01 0.000000e+00  
 1.850364e-01 -9.770093e-02 0.000000e+00  
 1.683144e-01 -5.075373e-02 0.000000e+00  
 9.319835e-02 1.967219e-01 0.000000e+00  
 9.538883e-02 2.022808e-01 0.000000e+00  
 1.094594e-01 1.695999e-01 0.000000e+00  
 9.531199e-02 1.480181e-01 0.000000e+00  
 1.257779e-01 1.232594e-01 0.000000e+00  
 1.151781e-01 2.139620e-01 0.000000e+00  
 7.803676e-02 2.665510e-01 0.000000e+00  
 8.271491e-02 2.467767e-01 0.000000e+00  
 1.132335e-01 2.427174e-01 0.000000e+00  
 9.641142e-02 2.845967e-01 0.000000e+00  
 9.314210e-02 3.093142e-01 0.000000e+00  
 2.597289e-01 -3.259729e-01 0.000000e+00  
 2.424626e-01 -2.800272e-01 0.000000e+00  
 2.638940e-01 -2.950649e-01 0.000000e+00  
 2.254120e-01 -2.410237e-01 0.000000e+00  
 2.446895e-01 -2.571218e-01 0.000000e+00  
 2.820862e-01 -2.868443e-01 0.000000e+00  
 2.055272e-01 -8.415318e-02 0.000000e+00  
 1.941224e-01 -5.573172e-02 0.000000e+00  
 2.110215e-01 -8.534787e-02 0.000000e+00  
 2.035652e-01 -1.362252e-01 0.000000e+00  
 1.990446e-01 -1.623338e-01 0.000000e+00  
 2.297577e-01 -2.170054e-01 0.000000e+00  
 2.112489e-01 -2.013253e-01 0.000000e+00  
 2.147197e-01 -1.769351e-01 0.000000e+00  
 2.235142e-01 -1.282555e-01 0.000000e+00  
 2.291216e-01 -1.106521e-01 0.000000e+00  
 2.503802e-01 -2.095494e-01 0.000000e+00  
 1.498471e-01 9.259092e-02 0.000000e+00  
 1.756465e-01 -1.186523e-02 0.000000e+00  
 1.666770e-01 5.678365e-02 0.000000e+00  
 1.744467e-01 2.223479e-02 0.000000e+00  
 2.118662e-01 -3.700558e-02 0.000000e+00  
 2.022085e-01 -1.519621e-02 0.000000e+00  
 1.347481e-01 2.069313e-01 0.000000e+00  
 1.396224e-01 1.815102e-01 0.000000e+00  
 1.319529e-01 1.713705e-01 0.000000e+00  
 1.441356e-01 1.416345e-01 0.000000e+00  
 1.593288e-01 1.406082e-01 0.000000e+00  
 1.760341e-01 1.153900e-01 0.000000e+00  
[...]
 POINT_DATA 2399 
 VECTORS Displacement float 
 1.649066e-05 -3.387325e-04 0.000000e+00  
 2.209554e-05 -3.371748e-04 0.000000e+00  
 1.540638e-05 -3.339168e-04 0.000000e+00  
 9.771529e-06 -3.399242e-04 0.000000e+00  
 9.713765e-06 -3.339786e-04 0.000000e+00  
 1.233386e-05 -3.324746e-04 0.000000e+00  
 2.834219e-05 -3.349356e-04 0.000000e+00  
 2.592448e-05 -3.311632e-04 0.000000e+00  
 2.084332e-05 -3.321484e-04 0.000000e+00  
 1.911329e-05 -3.306634e-04 0.000000e+00  
 1.243685e-05 -3.269125e-04 0.000000e+00  
 1.471584e-05 -3.262943e-04 0.000000e+00  
 2.763982e-06 -3.404022e-04 0.000000e+00  
 6.482504e-06 -3.323531e-04 0.000000e+00  
 3.455883e-06 -3.339515e-04 0.000000e+00  
 6.611643e-06 -3.267798e-04 0.000000e+00  
 1.055170e-05 -3.256098e-04 0.000000e+00  
 9.926747e-06 -3.198920e-04 0.000000e+00  
 3.448100e-05 -3.320608e-04 0.000000e+00  
 2.645206e-05 -3.283058e-04 0.000000e+00  
 3.162053e-05 -3.282976e-04 0.000000e+00  
 2.532697e-05 -3.267000e-04 0.000000e+00  
 2.118578e-05 -3.258019e-04 0.000000e+00  
 1.605191e-05 -3.232545e-04 0.000000e+00  
 1.989020e-05 -3.236020e-04 0.000000e+00  
 1.427871e-05 -3.199122e-04 0.000000e+00  
 -4.973498e-06 -3.399379e-04 0.000000e+00  
 -8.899094e-07 -3.316887e-04 0.000000e+00  
 -3.174798e-06 -3.327856e-04 0.000000e+00  
 2.645747e-07 -3.258418e-04 0.000000e+00  
 4.403651e-06 -3.250230e-04 0.000000e+00  
 4.694665e-06 -3.185132e-04 0.000000e+00  
 -1.314966e-05 -3.382614e-04 0.000000e+00  
 4.118675e-05 -3.278406e-04 0.000000e+00  
 3.293111e-05 -3.244945e-04 0.000000e+00  
 3.755284e-05 -3.242120e-04 0.000000e+00  
 2.650766e-05 -3.217576e-04 0.000000e+00  
 3.069249e-05 -3.220451e-04 0.000000e+00  
 2.530744e-05 -3.203603e-04 0.000000e+00  
 2.098782e-05 -3.202554e-04 0.000000e+00  
 1.939159e-05 -3.175918e-04 0.000000e+00  
 -9.547212e-06 -3.299538e-04 0.000000e+00  
 -6.967179e-06 -3.233347e-04 0.000000e+00  
 -2.501940e-06 -3.230809e-04 0.000000e+00  
 -7.464011e-07 -3.158354e-04 0.000000e+00  
 -1.714198e-05 -3.277336e-04 0.000000e+00  
 -2.192869e-05 -3.350999e-04 0.000000e+00  
 3.909330e-05 -3.198861e-04 0.000000e+00  
 4.409689e-05 -3.188978e-04 0.000000e+00  
 4.834477e-05 -3.217705e-04 0.000000e+00  
 3.286501e-05 -3.162191e-04 0.000000e+00  
 3.521785e-05 -3.162214e-04 0.000000e+00  
 3.099647e-05 -3.145685e-04 0.000000e+00  
 2.589298e-05 -3.153196e-04 0.000000e+00  
 2.359152e-05 -3.127936e-04 0.000000e+00  
 -1.838993e-05 -3.246288e-04 0.000000e+00  
 -1.452131e-05 -3.190065e-04 0.000000e+00  
 -9.889078e-06 -3.194668e-04 0.000000e+00  
 -6.391953e-06 -3.117725e-04 0.000000e+00  
 -2.542634e-05 -3.228975e-04 0.000000e+00  
 -3.028085e-05 -3.305917e-04 0.000000e+00  
 3.976996e-05 -3.109052e-04 0.000000e+00  
 4.465465e-05 -3.124882e-04 0.000000e+00  
 4.802201e-05 -3.108210e-04 0.000000e+00  
 5.505540e-05 -3.137580e-04 0.000000e+00  
 6.009589e-05 -3.051445e-04 0.000000e+00  
 6.421491e-05 -2.947342e-04 0.000000e+00  
 3.716922e-05 -3.056940e-04 0.000000e+00  
 3.081001e-05 -3.080988e-04 0.000000e+00  
 2.708766e-05 -3.053867e-04 0.000000e+00  
 -2.668470e-05 -3.203654e-04 0.000000e+00  
 -2.475919e-05 -3.142705e-04 0.000000e+00  
 -2.028860e-05 -3.121493e-04 0.000000e+00  
 -1.767857e-05 -3.129300e-04 0.000000e+00  
 -1.140560e-05 -3.067453e-04 0.000000e+00  
 -3.594810e-05 -3.188837e-04 0.000000e+00  
 -4.039225e-05 -3.230199e-04 0.000000e+00  
 4.901381e-05 -3.029195e-04 0.000000e+00  
 4.558094e-05 -3.013431e-04 0.000000e+00  
 5.202402e-05 -3.017105e-04 0.000000e+00  
 5.537287e-05 -2.931253e-04 0.000000e+00  
 6.443707e-05 -2.935083e-04 0.000000e+00  
 4.360351e-05 -2.942749e-04 0.000000e+00  
 3.432766e-05 -2.972502e-04 0.000000e+00  
 3.973325e-05 -2.930476e-04 0.000000e+00  
 2.948499e-05 -2.957014e-04 0.000000e+00  
 -3.156280e-05 -3.090650e-04 0.000000e+00  
 -3.608447e-05 -3.110166e-04 0.000000e+00  
 -2.948531e-05 -3.021763e-04 0.000000e+00  
 -2.263430e-05 -3.023689e-04 0.000000e+00  
 -1.837733e-05 -2.976988e-04 0.000000e+00  
 -4.148015e-05 -3.081489e-04 0.000000e+00  
 -4.952730e-05 -3.127735e-04 0.000000e+00  
 5.055987e-05 -2.882442e-04 0.000000e+00  
 5.178050e-05 -2.882519e-04 0.000000e+00  
 5.684198e-05 -2.812976e-04 0.000000e+00  
 6.632788e-05 -2.820187e-04 0.000000e+00  
 6.742607e-05 -2.750417e-04 0.000000e+00  
 6.779946e-05 -2.694531e-04 0.000000e+00  
 4.339331e-05 -2.797596e-04 0.000000e+00  
 3.741504e-05 -2.842307e-04 0.000000e+00  
 3.056944e-05 -2.822038e-04 0.000000e+00  
 -2.289230e-05 -2.883882e-04 0.000000e+00  
 -3.290491e-05 -2.972869e-04 0.000000e+00  
 -4.203285e-05 -3.004712e-04 0.000000e+00  
 -3.231375e-05 -2.929736e-04 0.000000e+00  
 -4.645323e-05 -2.969334e-04 0.000000e+00  
 -5.601823e-05 -3.023457e-04 0.000000e+00  
 6.856062e-05 -2.574606e-04 0.000000e+00  
 5.377749e-05 -2.725644e-04 0.000000e+00  
 4.432651e-05 -2.752093e-04 0.000000e+00  
 5.557818e-05 -2.685334e-04 0.000000e+00  
 5.464149e-05 -2.643182e-04 0.000000e+00  
 5.951718e-05 -2.562088e-04 0.000000e+00  
 4.067007e-05 -2.693127e-04 0.000000e+00  
 3.007146e-05 -2.707301e-04 0.000000e+00  
 -2.655369e-05 -2.775167e-04 0.000000e+00  
 -3.717995e-05 -2.864047e-04 0.000000e+00  
 -3.354502e-05 -2.790036e-04 0.000000e+00  
 -4.154011e-05 -2.864561e-04 0.000000e+00  
 -4.678220e-05 -2.926458e-04 0.000000e+00  
 -5.508551e-05 -2.869484e-04 0.000000e+00  
 -6.153508e-05 -2.891989e-04 0.000000e+00  
 -6.345144e-05 -2.802199e-04 0.000000e+00  
 6.865852e-05 -2.443362e-04 0.000000e+00  
 5.588964e-05 -2.492374e-04 0.000000e+00  
 5.853517e-05 -2.434139e-04 0.000000e+00  
 4.605992e-05 -2.591840e-04 0.000000e+00  
 4.299995e-05 -2.604846e-04 0.000000e+00  
 4.902154e-05 -2.496268e-04 0.000000e+00  
 3.675818e-05 -2.552654e-04 0.000000e+00  
 2.818831e-05 -2.585015e-04 0.000000e+00  
 -2.859416e-05 -2.649427e-04 0.000000e+00  
 -3.942753e-05 -2.717645e-04 0.000000e+00  
 -3.584630e-05 -2.655214e-04 0.000000e+00  
 -4.343941e-05 -2.724433e-04 0.000000e+00  
 -4.677519e-05 -2.781760e-04 0.000000e+00  
 -5.185661e-05 -2.790412e-04 0.000000e+00  
 -5.733536e-05 -2.729396e-04 0.000000e+00  
 -6.385180e-05 -2.736488e-04 0.000000e+00  
 6.824314e-05 -2.327271e-04 0.000000e+00  
 5.572370e-05 -2.373383e-04 0.000000e+00  
 5.833389e-05 -2.313111e-04 0.000000e+00  
 4.705457e-05 -2.364684e-04 0.000000e+00  
 4.458284e-05 -2.437155e-04 0.000000e+00  
 3.808316e-05 -2.449777e-04 0.000000e+00  
 3.458216e-05 -2.418058e-04 0.000000e+00  
 2.491260e-05 -2.470758e-04 0.000000e+00  
 -2.879787e-05 -2.538794e-04 0.000000e+00  
 -4.028765e-05 -2.581596e-04 0.000000e+00  
 -3.617283e-05 -2.524476e-04 0.000000e+00  
 -4.907808e-05 -2.646907e-04 0.000000e+00  
 -4.446857e-05 -2.581824e-04 0.000000e+00  
 -5.250054e-05 -2.649801e-04 0.000000e+00  
 -5.757432e-05 -2.587409e-04 0.000000e+00  
 -6.436256e-05 -2.593130e-04 0.000000e+00  
 6.752224e-05 -2.215697e-04 0.000000e+00  
 2.145373e-05 -2.384364e-04 0.000000e+00  
 5.577249e-05 -2.260748e-04 0.000000e+00  
 5.882321e-05 -2.201291e-04 0.000000e+00  
 4.463058e-05 -2.314803e-04 0.000000e+00  
 4.869903e-05 -2.245996e-04 0.000000e+00  
 3.859402e-05 -2.298760e-04 0.000000e+00  
 3.385412e-05 -2.346406e-04 0.000000e+00  
 2.789651e-05 -2.316679e-04 0.000000e+00  
 1.678546e-05 -2.301557e-04 0.000000e+00  
 -3.827617e-05 -2.467722e-04 0.000000e+00  
 -3.331483e-05 -2.410134e-04 0.000000e+00  
 -2.742810e-05 -2.430946e-04 0.000000e+00  
 -4.873994e-05 -2.508537e-04 0.000000e+00  
 -4.376845e-05 -2.448566e-04 0.000000e+00  
 -5.269939e-05 -2.507765e-04 0.000000e+00  
 -4.493062e-05 -2.401211e-04 0.000000e+00  
 -5.624824e-05 -2.457748e-04 0.000000e+00  
 -6.424320e-05 -2.468330e-04 0.000000e+00  
 6.663780e-05 -2.106696e-04 0.000000e+00  
 5.601145e-05 -2.148432e-04 0.000000e+00  
 5.898583e-05 -2.095213e-04 0.000000e+00  
 1.179177e-05 -2.239283e-04 0.000000e+00  
 2.674155e-05 -2.250467e-04 0.000000e+00  
 2.151115e-05 -2.234006e-04 0.000000e+00  
 4.604476e-05 -2.189416e-04 0.000000e+00  
 4.965759e-05 -2.136269e-04 0.000000e+00  
 4.020581e-05 -2.177587e-04 0.000000e+00  
 3.639068e-05 -2.222039e-04 0.000000e+00  
 3.044807e-05 -2.208262e-04 0.000000e+00  
 1.976598e-05 -2.176801e-04 0.000000e+00  
 1.497548e-05 -2.168033e-04 0.000000e+00  
 6.647651e-06 -2.194548e-04 0.000000e+00  
 -3.584928e-05 -2.347334e-04 0.000000e+00  
 -3.720258e-05 -2.341950e-04 0.000000e+00  
 -2.973438e-05 -2.304678e-04 0.000000e+00  
 -2.475245e-05 -2.339831e-04 0.000000e+00  
 -2.067737e-05 -2.261060e-04 0.000000e+00  
 -4.002968e-05 -2.293153e-04 0.000000e+00  
 -5.338914e-05 -2.391909e-04 0.000000e+00  
 -4.829554e-05 -2.377964e-04 0.000000e+00  
 -4.692890e-05 -2.299759e-04 0.000000e+00  
 -5.752959e-05 -2.345111e-04 0.000000e+00  
 -6.380553e-05 -2.355505e-04 0.000000e+00  
 6.575247e-05 -2.005027e-04 0.000000e+00  
 5.583233e-05 -2.041163e-04 0.000000e+00  
 5.861020e-05 -1.992009e-04 0.000000e+00  
 4.704254e-05 -2.079283e-04 0.000000e+00  
 5.042293e-05 -2.033918e-04 0.000000e+00  
 5.617725e-05 -1.949500e-04 0.000000e+00  
 1.261743e-05 -2.117099e-04 0.000000e+00  
 7.466019e-06 -2.138256e-04 0.000000e+00  
 1.291120e-05 -2.104172e-04 0.000000e+00  
 2.305412e-05 -2.126538e-04 0.000000e+00  
 2.880437e-05 -2.139739e-04 0.000000e+00  
 4.131454e-05 -2.067067e-04 0.000000e+00  
 3.781809e-05 -2.111668e-04 0.000000e+00  
 3.214792e-05 -2.101622e-04 0.000000e+00  
 2.155315e-05 -2.077976e-04 0.000000e+00  
 1.802618e-05 -2.063995e-04 0.000000e+00  
 3.938407e-05 -2.017643e-04 0.000000e+00  
 -1.572835e-05 -2.202834e-04 0.000000e+00  
 4.541771e-07 -2.162088e-04 0.000000e+00  
 -1.011484e-05 -2.166060e-04 0.000000e+00  
 -4.802157e-06 -2.154187e-04 0.000000e+00  
 4.423733e-06 -2.095753e-04 0.000000e+00  
 8.421013e-07 -2.112003e-04 0.000000e+00  
 -3.835463e-05 -2.245794e-04 0.000000e+00  
 -3.267453e-05 -2.233194e-04 0.000000e+00  
 -3.039630e-05 -2.250645e-04 0.000000e+00  
 -2.439870e-05 -2.221000e-04 0.000000e+00  
 -2.440288e-05 -2.187854e-04 0.000000e+00  
 -1.988850e-05 -2.151912e-04 0.000000e+00  
 -1.823677e-05 -2.156796e-04 0.000000e+00  
 -4.153068e-05 -2.204812e-04 0.000000e+00  
 -4.020122e-05 -2.165884e-04 0.000000e+00  
 -4.901886e-05 -2.276285e-04 0.000000e+00  
 -4.699837e-05 -2.217217e-04 0.000000e+00  
 -5.418613e-05 -2.283173e-04 0.000000e+00  
 -5.743989e-05 -2.240831e-04 0.000000e+00  
 -6.322529e-05 -2.248322e-04 0.000000e+00  
 5.869012e-05 -1.896579e-04 0.000000e+00  
 6.484812e-05 -1.900677e-04 0.000000e+00  
 4.699398e-05 -1.967382e-04 0.000000e+00  
 4.996372e-05 -1.934818e-04 0.000000e+00  
 4.329781e-05 -1.963544e-04 0.000000e+00  
 4.842826e-05 -1.874403e-04 0.000000e+00  
 5.468419e-05 -1.847848e-04 0.000000e+00  
 5.224677e-06 -2.052995e-04 0.000000e+00  
 9.483355e-06 -2.039009e-04 0.000000e+00  
 1.087866e-05 -2.005167e-04 0.000000e+00  
 1.656837e-05 -1.999006e-04 0.000000e+00  
 3.011065e-05 -2.031051e-04 0.000000e+00  
 2.630053e-05 -2.022548e-04 0.000000e+00  
 3.364119e-05 -2.000072e-04 0.000000e+00  
 2.392779e-05 -1.974114e-04 0.000000e+00  
 1.788020e-05 -1.976922e-04 0.000000e+00  
 3.969437e-05 -1.915801e-04 0.000000e+00  
 3.290449e-05 -1.932001e-04 0.000000e+00  
 -1.443486e-05 -2.110654e-04 0.000000e+00  
 -1.176492e-05 -2.121590e-04 0.000000e+00  
 -8.296069e-06 -2.082439e-04 0.000000e+00  
 -2.361000e-06 -2.076811e-04 0.000000e+00  
 -5.652677e-06 -2.097844e-04 0.000000e+00  
 -1.968319e-06 -2.036991e-04 0.000000e+00  
 2.985064e-06 -2.021694e-04 0.000000e+00  
 -3.259973e-05 -2.157571e-04 0.000000e+00  
 -3.403159e-05 -2.148706e-04 0.000000e+00  
 -2.869838e-05 -2.148299e-04 0.000000e+00  
 -2.679889e-05 -2.098335e-04 0.000000e+00  
 -2.239290e-05 -2.100113e-04 0.000000e+00  
 -2.029738e-05 -2.063558e-04 0.000000e+00  
 -1.604788e-05 -2.072024e-04 0.000000e+00  
 -3.535826e-05 -2.084613e-04 0.000000e+00  
 -4.326005e-05 -2.123352e-04 0.000000e+00  
 -4.062387e-05 -2.080652e-04 0.000000e+00  
 -4.726553e-05 -2.126693e-04 0.000000e+00  
 -5.020940e-05 -2.180309e-04 0.000000e+00  
 -5.408915e-05 -2.185365e-04 0.000000e+00  
 -5.726673e-05 -2.144632e-04 0.000000e+00  
 -6.272789e-05 -2.151794e-04 0.000000e+00  
 5.485851e-05 -1.813088e-04 0.000000e+00  
 5.727909e-05 -1.797979e-04 0.000000e+00  
 6.411342e-05 -1.816621e-04 0.000000e+00  
 4.526037e-05 -1.853813e-04 0.000000e+00  
 4.062749e-05 -1.870632e-04 0.000000e+00  
 4.506945e-05 -1.792294e-04 0.000000e+00  
 4.913214e-05 -1.773555e-04 0.000000e+00  
 8.945896e-06 -1.956291e-04 0.000000e+00  
 3.648313e-06 -1.962511e-04 0.000000e+00  
 1.052402e-05 -1.921589e-04 0.000000e+00  
 1.635176e-05 -1.917628e-04 0.000000e+00  
 2.595930e-05 -1.925522e-04 0.000000e+00  
 3.109592e-05 -1.917060e-04 0.000000e+00  
 2.308596e-05 -1.887019e-04 0.000000e+00  
 1.764323e-05 -1.894059e-04 0.000000e+00  
 3.601697e-05 -1.830010e-04 0.000000e+00  
 3.169527e-05 -1.847526e-04 0.000000e+00  
 -9.518456e-06 -2.043413e-04 0.000000e+00  
 -1.393480e-05 -2.033029e-04 0.000000e+00  
 -7.682008e-06 -2.006980e-04 0.000000e+00  
 -3.894226e-06 -2.005663e-04 0.000000e+00  
 2.728203e-06 -1.949963e-04 0.000000e+00  
 -2.529298e-06 -1.957067e-04 0.000000e+00  
 -3.316243e-05 -2.060087e-04 0.000000e+00  
 -2.901301e-05 -2.063602e-04 0.000000e+00  
 -2.195480e-05 -2.024884e-04 0.000000e+00  
 -2.644304e-05 -2.016721e-04 0.000000e+00  
 -1.544704e-05 -1.993083e-04 0.000000e+00  
 -1.968572e-05 -1.984384e-04 0.000000e+00  
 -3.513507e-05 -2.006041e-04 0.000000e+00  
 -4.010824e-05 -2.004461e-04 0.000000e+00  
 -4.252737e-05 -2.039435e-04 0.000000e+00  
 -4.718578e-05 -2.038871e-04 0.000000e+00  
 -5.013729e-05 -2.089156e-04 0.000000e+00  
 -5.410216e-05 -2.092360e-04 0.000000e+00  
 -5.675842e-05 -2.055379e-04 0.000000e+00  
 -6.236641e-05 -2.061833e-04 0.000000e+00  
 4.925494e-05 -1.723726e-04 0.000000e+00  
 5.472824e-05 -1.705383e-04 0.000000e+00  
 5.653193e-05 -1.720519e-04 0.000000e+00  
 6.333849e-05 -1.722549e-04 0.000000e+00  
 3.673180e-05 -1.779644e-04 0.000000e+00  
 4.088440e-05 -1.764453e-04 0.000000e+00  
 4.528837e-05 -1.690876e-04 0.000000e+00  
 4.123176e-05 -1.704809e-04 0.000000e+00  
 2.838031e-06 -1.891694e-04 0.000000e+00  
 5.547392e-06 -1.864503e-04 0.000000e+00  
 8.915393e-06 -1.873353e-04 0.000000e+00  
 1.242735e-05 -1.829445e-04 0.000000e+00  
 1.596581e-05 -1.839227e-04 0.000000e+00  
 2.718962e-05 -1.816390e-04 0.000000e+00  
 2.470917e-05 -1.827723e-04 0.000000e+00  
 1.969527e-05 -1.798676e-04 0.000000e+00  
 2.828464e-05 -1.761400e-04 0.000000e+00  
 3.296266e-05 -1.747728e-04 0.000000e+00  
 -7.577751e-06 -1.915374e-04 0.000000e+00  
 -9.989010e-06 -1.955113e-04 0.000000e+00  
 -1.318830e-05 -1.952651e-04 0.000000e+00  
 -4.512047e-06 -1.917462e-04 0.000000e+00  
 -1.884162e-06 -1.869068e-04 0.000000e+00  
 -3.293014e-05 -1.975005e-04 0.000000e+00  
 -2.813329e-05 -1.981399e-04 0.000000e+00  
 -2.125273e-05 -1.946463e-04 0.000000e+00  
 -2.576902e-05 -1.937764e-04 0.000000e+00  
 -1.541538e-05 -1.906979e-04 0.000000e+00  
 -1.891832e-05 -1.904011e-04 0.000000e+00  
 -3.437271e-05 -1.932916e-04 0.000000e+00  
 -4.200614e-05 -1.955300e-04 0.000000e+00  
 -3.976323e-05 -1.926139e-04 0.000000e+00  
 -4.663759e-05 -1.955294e-04 0.000000e+00  
 -4.935961e-05 -2.003931e-04 0.000000e+00  
 -5.396537e-05 -2.005776e-04 0.000000e+00  
 -5.612532e-05 -1.971155e-04 0.000000e+00  
 -6.212932e-05 -1.979239e-04 0.000000e+00  
 5.405010e-05 -1.662841e-04 0.000000e+00  
 4.579798e-05 -1.637535e-04 0.000000e+00  
 4.836141e-05 -1.627303e-04 0.000000e+00  
 5.715290e-05 -1.631933e-04 0.000000e+00  
 6.266028e-05 -1.644694e-04 0.000000e+00  
 3.361718e-05 -1.691943e-04 0.000000e+00  
 3.711871e-05 -1.675597e-04 0.000000e+00  
 4.115011e-05 -1.605607e-04 0.000000e+00  
 3.732964e-05 -1.627637e-04 0.000000e+00  
 4.094782e-05 -1.565746e-04 0.000000e+00  
 -2.391713e-06 -1.844481e-04 0.000000e+00  
 3.825305e-07 -1.799390e-04 0.000000e+00  
 4.376654e-06 -1.807408e-04 0.000000e+00  
 1.104990e-05 -1.783193e-04 0.000000e+00  
 6.958813e-06 -1.774911e-04 0.000000e+00  
 1.914864e-05 -1.757978e-04 0.000000e+00  
 1.370815e-05 -1.746453e-04 0.000000e+00  
 2.081017e-05 -1.735085e-04 0.000000e+00  
 2.539188e-05 -1.730374e-04 0.000000e+00  
 2.864886e-05 -1.660122e-04 0.000000e+00  
 2.703116e-05 -1.667485e-04 0.000000e+00  
 -1.290677e-05 -1.861123e-04 0.000000e+00  
 -7.065393e-06 -1.822251e-04 0.000000e+00  
 -9.847370e-06 -1.863659e-04 0.000000e+00  
 -3.202322e-05 -1.895350e-04 0.000000e+00  
 -2.715193e-05 -1.905486e-04 0.000000e+00  
 -2.113046e-05 -1.860345e-04 0.000000e+00  
 -2.480052e-05 -1.860935e-04 0.000000e+00  
 -1.511558e-05 -1.819981e-04 0.000000e+00  
 -1.926218e-05 -1.822727e-04 0.000000e+00  
 -7.552296e-06 -1.792716e-04 0.000000e+00  
 -3.300155e-05 -1.866169e-04 0.000000e+00  
 -4.078510e-05 -1.875688e-04 0.000000e+00  
 -3.715393e-05 -1.850702e-04 0.000000e+00  
 -4.305898e-05 -1.866286e-04 0.000000e+00  
 -4.882621e-05 -1.920025e-04 0.000000e+00  
 -4.740453e-05 -1.884279e-04 0.000000e+00  
 -5.406725e-05 -1.929754e-04 0.000000e+00  
 -5.643017e-05 -1.891160e-04 0.000000e+00  
 -6.194835e-05 -1.897940e-04 0.000000e+00  
 4.936080e-05 -1.574147e-04 0.000000e+00  
 5.434737e-05 -1.573786e-04 0.000000e+00  
 4.587061e-05 -1.533286e-04 0.000000e+00  
 5.575085e-05 -1.549391e-04 0.000000e+00  
 6.186265e-05 -1.556139e-04 0.000000e+00  
 3.253832e-05 -1.593026e-04 0.000000e+00  
 2.986885e-05 -1.606061e-04 0.000000e+00  
 3.329053e-05 -1.546055e-04 0.000000e+00  
 3.671730e-05 -1.532851e-04 0.000000e+00  
 3.740183e-05 -1.483191e-04 0.000000e+00  
 4.116394e-05 -1.475820e-04 0.000000e+00  
 -1.055748e-06 -1.756122e-04 0.000000e+00  
 -4.078666e-06 -1.750210e-04 0.000000e+00  
 5.723636e-06 -1.725361e-04 0.000000e+00  
 1.726713e-06 -1.716139e-04 0.000000e+00  
 8.574847e-06 -1.688660e-04 0.000000e+00  
 1.262367e-05 -1.700615e-04 0.000000e+00  
 1.585447e-05 -1.663534e-04 0.000000e+00  
 1.888511e-05 -1.670402e-04 0.000000e+00  
 2.207099e-05 -1.643517e-04 0.000000e+00  
 2.172386e-05 -1.591460e-04 0.000000e+00  
 2.463643e-05 -1.568894e-04 0.000000e+00  
 -1.331791e-05 -1.772323e-04 0.000000e+00  
 -1.145592e-05 -1.766371e-04 0.000000e+00  
 -2.752218e-05 -1.816473e-04 0.000000e+00  
 -2.993382e-05 -1.818735e-04 0.000000e+00  
 -2.159325e-05 -1.773950e-04 0.000000e+00  
 -2.546700e-05 -1.780422e-04 0.000000e+00  
 -1.670924e-05 -1.736407e-04 0.000000e+00  
 -2.030592e-05 -1.747205e-04 0.000000e+00  
 -9.568130e-06 -1.701677e-04 0.000000e+00  
 -6.177931e-06 -1.697673e-04 0.000000e+00  
 -3.720909e-05 -1.795894e-04 0.000000e+00  
 -3.335581e-05 -1.779316e-04 0.000000e+00  
 -4.021688e-05 -1.778296e-04 0.000000e+00  
 -4.371925e-05 -1.801219e-04 0.000000e+00  
 -4.725368e-05 -1.792856e-04 0.000000e+00  
 -5.083052e-05 -1.842570e-04 0.000000e+00  
 -5.373507e-05 -1.845555e-04 0.000000e+00  
 -5.616250e-05 -1.810565e-04 0.000000e+00  
 -6.177517e-05 -1.818181e-04 0.000000e+00  
 4.263027e-05 -1.436625e-04 0.000000e+00  
 5.322027e-05 -1.496656e-04 0.000000e+00  
 4.981899e-05 -1.487953e-04 0.000000e+00  
 4.724005e-05 -1.443699e-04 0.000000e+00  
 5.554946e-05 -1.469617e-04 0.000000e+00  
 6.112641e-05 -1.479727e-04 0.000000e+00  
 4.081753e-05 -1.405384e-04 0.000000e+00  
 2.498303e-05 -1.533432e-04 0.000000e+00  
 2.936593e-05 -1.510824e-04 0.000000e+00  
 3.412520e-05 -1.451706e-04 0.000000e+00  
 2.959287e-05 -1.475634e-04 0.000000e+00  
 3.405489e-05 -1.425580e-04 0.000000e+00  
 3.732631e-05 -1.395187e-04 0.000000e+00  
 -4.340252e-06 -1.666960e-04 0.000000e+00  
 5.620162e-07 -1.674951e-04 0.000000e+00  
 7.567007e-06 -1.648354e-04 0.000000e+00  
 2.930436e-06 -1.634469e-04 0.000000e+00  
 1.728416e-05 -1.574032e-04 0.000000e+00  
 1.035527e-05 -1.608293e-04 0.000000e+00  
 1.414081e-05 -1.616032e-04 0.000000e+00  
 1.627333e-05 -1.539884e-04 0.000000e+00  
 2.139097e-05 -1.495946e-04 0.000000e+00  
 1.822739e-05 -1.501452e-04 0.000000e+00  
 -1.222875e-05 -1.673481e-04 0.000000e+00  
 -1.553744e-05 -1.688725e-04 0.000000e+00  
 -2.820386e-05 -1.729006e-04 0.000000e+00  
 -3.209717e-05 -1.736375e-04 0.000000e+00  