# vtk DataFile Version 1.0 
PolyMesh 
ASCII 
 
DATASET POLYDATA 
 
POINTS 411 float 
-2.224871e-01 9.771700e-02 0.000000e+00  
 -2.779415e-01 1.270248e-01 0.000000e+00  
 -1.824095e-01 -7.567668e-03 0.000000e+00  
 -2.109526e-01 -7.677304e-03 0.000000e+00  
 -2.398418e-01 1.402686e-02 0.000000e+00  
 -3.045987e-01 1.424249e-02 0.000000e+00  
 -1.757891e-01 1.057313e-01 0.000000e+00  
 -1.566258e-01 9.449650e-02 0.000000e+00  
 -1.787882e-01 1.901255e-01 0.000000e+00  
 -2.118455e-01 2.219324e-01 0.000000e+00  
 -1.031849e-01 2.887112e-01 0.000000e+00  
 -1.501731e-01 -9.854233e-02 0.000000e+00  
 -2.504102e-01 -9.225533e-02 0.000000e+00  
 -1.836823e-01 -1.160996e-01 0.000000e+00  
 -2.886374e-01 -1.047279e-01 0.000000e+00  
 -1.014847e-01 1.925935e-01 0.000000e+00  
 -7.805441e-02 1.654369e-01 0.000000e+00  
 -9.480308e-02 2.854357e-01 0.000000e+00  
 -7.005519e-02 1.627494e-01 0.000000e+00  
 -6.189731e-02 2.938103e-01 0.000000e+00  
 -7.612872e-03 1.786411e-01 0.000000e+00  
 -5.308033e-02 2.946920e-01 0.000000e+00  
 1.798817e-03 3.001799e-01 0.000000e+00  
 -8.991612e-02 -1.561400e-01 0.000000e+00  
 -1.086061e-01 -1.895384e-01 0.000000e+00  
 -1.941510e-01 -2.032322e-01 0.000000e+00  
 -2.142080e-01 -2.216666e-01 0.000000e+00  
 -9.738906e-02 -2.902611e-01 0.000000e+00  
 9.487067e-04 2.026361e-01 0.000000e+00  
 -2.619480e-03 1.841003e-01 0.000000e+00  
 6.325644e-02 2.539032e-01 0.000000e+00  
 6.127683e-02 2.977323e-01 0.000000e+00  
 6.735519e-02 3.067355e-01 0.000000e+00  
 -1.724887e-03 -1.808716e-01 0.000000e+00  
 -7.859504e-02 -2.704674e-01 0.000000e+00  
 -3.171952e-03 -2.123431e-01 0.000000e+00  
 -8.421273e-02 -2.915787e-01 0.000000e+00  
 4.441265e-03 -3.004441e-01 0.000000e+00  
 1.189661e-01 2.108255e-01 0.000000e+00  
 9.833766e-02 1.526696e-01 0.000000e+00  
 1.003813e-01 1.457206e-01 0.000000e+00  
 1.597760e-01 2.277616e-01 0.000000e+00  
 1.580123e-01 3.158012e-01 0.000000e+00  
 8.929247e-02 -1.580052e-01 0.000000e+00  
 1.371087e-01 -1.162688e-01 0.000000e+00  
 9.237868e-02 -1.507553e-01 0.000000e+00  
 1.320951e-01 -1.177832e-01 0.000000e+00  
 1.078300e-01 -2.169053e-01 0.000000e+00  
 5.200147e-02 -2.729645e-01 0.000000e+00  
 5.098496e-02 -3.023801e-01 0.000000e+00  
 1.732717e-01 -4.550849e-02 0.000000e+00  
 1.485205e-01 1.007155e-01 0.000000e+00  
 1.764582e-01 3.412325e-02 0.000000e+00  
 2.126945e-01 1.459965e-01 0.000000e+00  
 2.024644e-01 2.082462e-01 0.000000e+00  
 2.518553e-01 2.404777e-01 0.000000e+00  
 2.441682e-01 3.244168e-01 0.000000e+00  
 2.431340e-01 -6.349445e-02 0.000000e+00  
 2.058470e-01 -1.614325e-01 0.000000e+00  
 2.545370e-01 -1.267073e-01 0.000000e+00  
 2.024134e-01 -2.137158e-01 0.000000e+00  
 1.684275e-01 -2.388178e-01 0.000000e+00  
 1.662226e-01 -3.166223e-01 0.000000e+00  
 2.594741e-01 4.282249e-02 0.000000e+00  
 2.741696e-01 6.550015e-02 0.000000e+00  
 2.801676e-01 -2.753898e-02 0.000000e+00  
 2.607425e-01 1.238830e-01 0.000000e+00  
 3.132930e-01 2.175402e-01 0.000000e+00  
 3.167796e-01 1.694934e-01 0.000000e+00  
 3.458061e-01 2.468542e-01 0.000000e+00  
 3.281297e-01 3.328130e-01 0.000000e+00  
 3.329093e-01 -3.776191e-02 0.000000e+00  
 3.579482e-01 -1.005436e-01 0.000000e+00  
 3.015680e-01 -1.438936e-01 0.000000e+00  
 3.181896e-01 -2.135974e-01 0.000000e+00  
 2.732245e-01 -2.461284e-01 0.000000e+00  
 2.714523e-01 -3.271452e-01 0.000000e+00  
 3.809191e-01 1.574038e-02 0.000000e+00  
 3.827426e-01 1.276646e-01 0.000000e+00  
 3.556059e-01 6.358691e-02 0.000000e+00  
 4.243734e-01 7.089253e-03 0.000000e+00  
 4.072947e-01 1.361953e-01 0.000000e+00  
 4.304200e-01 2.136990e-01 0.000000e+00  
 4.047750e-01 2.416459e-01 0.000000e+00  
 4.391879e-01 3.439188e-01 0.000000e+00  
 3.627121e-01 -3.362712e-01 0.000000e+00  
 3.946544e-01 -1.109329e-01 0.000000e+00  
 4.478283e-01 -6.401504e-02 0.000000e+00  
 4.161886e-01 -1.637326e-01 0.000000e+00  
 3.694699e-01 -2.281471e-01 0.000000e+00  
 3.838564e-01 -2.550381e-01 0.000000e+00  
 4.940070e-01 -7.537633e-02 0.000000e+00  
 5.419192e-01 -3.267944e-02 0.000000e+00  
 4.670792e-01 1.018775e-01 0.000000e+00  
 4.681257e-01 4.219193e-02 0.000000e+00  
 5.352540e-01 1.372983e-02 0.000000e+00  
 4.582048e-01 3.458205e-01 0.000000e+00  
 4.941175e-01 2.203656e-01 0.000000e+00  
 5.170565e-01 1.308559e-01 0.000000e+00  
 5.243607e-01 1.806102e-01 0.000000e+00  
 5.115443e-01 2.636060e-01 0.000000e+00  
 4.735876e-01 -2.666454e-01 0.000000e+00  
 4.752932e-01 -3.475293e-01 0.000000e+00  
 4.801807e-01 -1.788641e-01 0.000000e+00  
 5.162311e-01 -1.443858e-01 0.000000e+00  
 4.904326e-01 -2.481013e-01 0.000000e+00  
 5.594025e-01 -1.505631e-01 0.000000e+00  
 6.027845e-01 -6.060414e-02 0.000000e+00  
 6.081299e-01 -1.028998e-01 0.000000e+00  
 5.616077e-01 -3.561608e-01 0.000000e+00  
 5.828239e-01 6.102553e-02 0.000000e+00  
 6.452951e-01 2.898313e-02 0.000000e+00  
 6.498361e-01 -1.996491e-02 0.000000e+00  
 5.789914e-01 8.821881e-02 0.000000e+00  
 5.721627e-01 2.834381e-01 0.000000e+00  
 5.804912e-01 3.580491e-01 0.000000e+00  
 6.182066e-01 2.424391e-01 0.000000e+00  
 6.336817e-01 1.484013e-01 0.000000e+00  
 6.057063e-01 1.981790e-01 0.000000e+00  
 6.519652e-01 3.651965e-01 0.000000e+00  
 5.806137e-01 -2.578954e-01 0.000000e+00  
 5.950935e-01 -2.169757e-01 0.000000e+00  
 6.700169e-01 -1.358554e-01 0.000000e+00  
 6.642165e-01 -1.904810e-01 0.000000e+00  
 7.125901e-01 -1.099555e-01 0.000000e+00  
 7.094758e-01 -4.792291e-02 0.000000e+00  
 6.708844e-01 -2.980205e-01 0.000000e+00  
 6.680719e-01 -3.668072e-01 0.000000e+00  
 7.585300e-01 -1.280989e-02 0.000000e+00  
 6.796206e-01 1.376399e-01 0.000000e+00  
 7.472225e-01 4.699853e-02 0.000000e+00  
 6.917230e-01 6.571240e-02 0.000000e+00  
 7.183400e-01 1.656313e-01 0.000000e+00  
 6.804705e-01 2.659277e-01 0.000000e+00  
 7.249789e-01 1.986230e-01 0.000000e+00  
 7.578565e-01 3.079240e-01 0.000000e+00  
 7.543438e-01 3.754344e-01 0.000000e+00  
 8.047229e-01 -3.184695e-02 0.000000e+00  
 8.528816e-01 -1.544295e-03 0.000000e+00  
 7.138974e-01 -2.353047e-01 0.000000e+00  
 7.129573e-01 -2.608668e-01 0.000000e+00  
 7.623876e-01 -1.329174e-01 0.000000e+00  
 7.686740e-01 -1.930308e-01 0.000000e+00  
 8.147988e-01 -1.002997e-01 0.000000e+00  
 8.507640e-01 -1.157622e-01 0.000000e+00  
 7.763802e-01 -3.072418e-01 0.000000e+00  
 7.695395e-01 -3.769540e-01 0.000000e+00  
 7.965240e-01 9.194667e-02 0.000000e+00  
 8.573247e-01 5.822523e-02 0.000000e+00  
 7.933048e-01 1.170696e-01 0.000000e+00  
 8.425805e-01 1.810568e-01 0.000000e+00  
 7.999653e-01 2.305197e-01 0.000000e+00  
 8.047989e-01 2.733104e-01 0.000000e+00  
 8.961946e-01 7.881835e-02 0.000000e+00  
 8.577711e-01 3.021602e-01 0.000000e+00  
 8.485598e-01 3.848560e-01 0.000000e+00  
 9.566817e-01 4.536097e-02 0.000000e+00  
 9.631386e-01 -1.848628e-03 0.000000e+00  
 9.162472e-01 -3.949268e-02 0.000000e+00  
 9.152363e-01 -8.021203e-02 0.000000e+00  
 8.311227e-01 -2.195728e-01 0.000000e+00  
 8.333554e-01 -2.747085e-01 0.000000e+00  
 8.679576e-01 -1.881391e-01 0.000000e+00  
 9.219565e-01 -1.960315e-01 0.000000e+00  
 9.575028e-01 -1.186945e-01 0.000000e+00  
 8.802998e-01 -3.058116e-01 0.000000e+00  
 8.717657e-01 -3.871766e-01 0.000000e+00  
 8.747376e-01 1.804134e-01 0.000000e+00  
 9.079157e-01 1.389853e-01 0.000000e+00  
 9.131142e-01 2.384113e-01 0.000000e+00  
 9.006735e-01 2.834639e-01 0.000000e+00  
 1.011621e+00 9.622902e-02 0.000000e+00  
 9.782918e-01 1.490776e-01 0.000000e+00  
 9.548921e-01 3.267670e-01 0.000000e+00  
 9.478885e-01 3.947889e-01 0.000000e+00  
 1.041299e+00 9.073589e-02 0.000000e+00  
 1.021122e+00 -2.491268e-02 0.000000e+00  
 1.068991e+00 2.855476e-02 0.000000e+00  
 1.000376e+00 -1.169539e-01 0.000000e+00  
 1.033503e+00 -6.403515e-02 0.000000e+00  
 9.465289e-01 -2.273045e-01 0.000000e+00  
 9.310092e-01 -2.862843e-01 0.000000e+00  
 1.007722e+00 -2.197806e-01 0.000000e+00  
 1.031178e+00 -1.630817e-01 0.000000e+00  
 9.813575e-01 -3.288276e-01 0.000000e+00  
 9.730086e-01 -3.973009e-01 0.000000e+00  
 1.001793e+00 2.142838e-01 0.000000e+00  
 1.012631e+00 2.967728e-01 0.000000e+00  
 1.072027e+00 1.991822e-01 0.000000e+00  
 1.089647e+00 1.336239e-01 0.000000e+00  
 1.054687e+00 3.190192e-01 0.000000e+00  
 1.049249e+00 4.049249e-01 0.000000e+00  
 1.141895e+00 1.204452e-01 0.000000e+00  
 1.158503e+00 5.539064e-02 0.000000e+00  
 1.120025e+00 1.843165e-02 0.000000e+00  
 1.106167e+00 -8.038271e-02 0.000000e+00  
 1.138152e+00 -4.706378e-02 0.000000e+00  
 1.116461e+00 -1.470326e-01 0.000000e+00  
 1.101809e+00 -1.631549e-01 0.000000e+00  
 1.043825e+00 -2.995883e-01 0.000000e+00  
 1.048333e+00 -2.661296e-01 0.000000e+00  
 1.109515e+00 -2.333932e-01 0.000000e+00  
 1.083991e+00 -3.402948e-01 0.000000e+00  
 1.077072e+00 -4.077072e-01 0.000000e+00  
 1.113123e+00 2.372820e-01 0.000000e+00  
 1.100339e+00 2.994639e-01 0.000000e+00  
 1.170958e+00 2.200226e-01 0.000000e+00  
 1.184240e+00 1.579567e-01 0.000000e+00  
 1.155153e+00 3.374472e-01 0.000000e+00  
 1.144598e+00 4.144598e-01 0.000000e+00  
 1.239670e+00 1.420350e-01 0.000000e+00  
 1.253875e+00 8.057556e-02 0.000000e+00  
 1.214902e+00 4.335661e-02 0.000000e+00  
 1.232383e+00 -2.144221e-02 0.000000e+00  
 1.197486e+00 -5.680531e-02 0.000000e+00  
 1.216133e+00 -1.254199e-01 0.000000e+00  
 1.188316e+00 -1.536690e-01 0.000000e+00  
 1.202584e+00 -2.265165e-01 0.000000e+00  
 1.156366e+00 -2.585533e-01 0.000000e+00  
 1.157643e+00 -3.144182e-01 0.000000e+00  
 1.181963e+00 -3.366995e-01 0.000000e+00  
 1.175341e+00 -4.175341e-01 0.000000e+00  
 1.214887e+00 2.586185e-01 0.000000e+00  
 1.205336e+00 3.149235e-01 0.000000e+00  
 1.271928e+00 2.375008e-01 0.000000e+00  
 1.283062e+00 1.806870e-01 0.000000e+00  
 1.257630e+00 3.549718e-01 0.000000e+00  
 1.249528e+00 4.249528e-01 0.000000e+00  
 1.338406e+00 1.621162e-01 0.000000e+00  
 1.312164e+00 6.593566e-02 0.000000e+00  
 1.351265e+00 1.033851e-01 0.000000e+00  
 1.325991e+00 7.176619e-03 0.000000e+00  
[...]
 POINT_DATA 411 
 VECTORS Displacement float 
 -1.449380e-05 -3.741202e-04 0.000000e+00  
 -2.165092e-05 -3.877265e-04 0.000000e+00  
 7.917733e-06 -3.672089e-04 0.000000e+00  
 8.011196e-06 -3.726250e-04 0.000000e+00  
 3.792190e-06 -3.784917e-04 0.000000e+00  
 3.761511e-06 -3.920663e-04 0.000000e+00  
 -1.610136e-05 -3.620290e-04 0.000000e+00  
 -1.334406e-05 -3.570796e-04 0.000000e+00  
 -3.924429e-05 -3.620933e-04 0.000000e+00  
 -4.828505e-05 -3.716927e-04 0.000000e+00  
 -7.038268e-05 -3.384552e-04 0.000000e+00  
 2.410536e-05 -3.619673e-04 0.000000e+00  
 2.375496e-05 -3.812125e-04 0.000000e+00  
 2.760849e-05 -3.683018e-04 0.000000e+00  
 2.618482e-05 -3.885903e-04 0.000000e+00  
 -3.997158e-05 -3.382453e-04 0.000000e+00  
 -3.159570e-05 -3.306722e-04 0.000000e+00  
 -6.924717e-05 -3.352990e-04 0.000000e+00  
 -2.961815e-05 -3.271753e-04 0.000000e+00  
 -7.272214e-05 -3.241351e-04 0.000000e+00  
 -3.471259e-05 -3.054267e-04 0.000000e+00  
 -7.237583e-05 -3.210698e-04 0.000000e+00  
 -7.379857e-05 -3.027793e-04 0.000000e+00  
 3.441442e-05 -3.466689e-04 0.000000e+00  
 4.294933e-05 -3.512706e-04 0.000000e+00  
 4.651170e-05 -3.711579e-04 0.000000e+00  
 5.043104e-05 -3.758429e-04 0.000000e+00  
 7.070588e-05 -3.479527e-04 0.000000e+00  
 -4.310042e-05 -3.024052e-04 0.000000e+00  
 -3.712123e-05 -3.035207e-04 0.000000e+00  
 -5.828292e-05 -2.823812e-04 0.000000e+00  
 -7.110808e-05 -2.831302e-04 0.000000e+00  
 -7.280159e-05 -2.812337e-04 0.000000e+00  
 3.849114e-05 -3.184375e-04 0.000000e+00  
 6.560066e-05 -3.423907e-04 0.000000e+00  
 4.865573e-05 -3.186629e-04 0.000000e+00  
 7.197134e-05 -3.443282e-04 0.000000e+00  
 7.644067e-05 -3.152493e-04 0.000000e+00  
 -4.583538e-05 -2.657777e-04 0.000000e+00  
 -3.022502e-05 -2.713862e-04 0.000000e+00  
 -2.966192e-05 -2.703455e-04 0.000000e+00  
 -5.002071e-05 -2.552196e-04 0.000000e+00  
 -7.271509e-05 -2.562588e-04 0.000000e+00  
 3.138477e-05 -2.861009e-04 0.000000e+00  
 2.173291e-05 -2.678945e-04 0.000000e+00  
 2.962362e-05 -2.852386e-04 0.000000e+00  
 2.041913e-05 -2.721750e-04 0.000000e+00  
 4.967426e-05 -2.796188e-04 0.000000e+00  
 6.724439e-05 -2.990241e-04 0.000000e+00  
 7.679395e-05 -2.992847e-04 0.000000e+00  
 7.108884e-06 -2.543035e-04 0.000000e+00  
 -2.004237e-05 -2.574386e-04 0.000000e+00  
 -7.647091e-06 -2.510382e-04 0.000000e+00  
 -3.039805e-05 -2.421372e-04 0.000000e+00  
 -4.490914e-05 -2.444968e-04 0.000000e+00  
 -5.212409e-05 -2.325756e-04 0.000000e+00  
 -7.224658e-05 -2.348197e-04 0.000000e+00  
 1.100927e-05 -2.368327e-04 0.000000e+00  
 3.339084e-05 -2.478163e-04 0.000000e+00  
 2.519512e-05 -2.342621e-04 0.000000e+00  
 4.754781e-05 -2.494250e-04 0.000000e+00  
 5.518378e-05 -2.599919e-04 0.000000e+00  
 7.780839e-05 -2.612778e-04 0.000000e+00  
 -9.743232e-06 -2.319649e-04 0.000000e+00  
 -1.418254e-05 -2.281059e-04 0.000000e+00  
 4.018770e-06 -2.273461e-04 0.000000e+00  
 -2.592081e-05 -2.308641e-04 0.000000e+00  
 -4.612746e-05 -2.179479e-04 0.000000e+00  
 -3.564782e-05 -2.171961e-04 0.000000e+00  
 -5.215641e-05 -2.103610e-04 0.000000e+00  
 -7.193456e-05 -2.149934e-04 0.000000e+00  
 6.384956e-06 -2.141030e-04 0.000000e+00  
 1.964860e-05 -2.078898e-04 0.000000e+00  
 2.929032e-05 -2.219773e-04 0.000000e+00  
 4.588858e-05 -2.178652e-04 0.000000e+00  
 5.485604e-05 -2.298050e-04 0.000000e+00  
 7.618676e-05 -2.309622e-04 0.000000e+00  
 -4.162051e-06 -2.023889e-04 0.000000e+00  
 -2.651680e-05 -2.017340e-04 0.000000e+00  
 -1.374871e-05 -2.083724e-04 0.000000e+00  
 -2.259508e-06 -1.919153e-04 0.000000e+00  
 -2.806484e-05 -1.958967e-04 0.000000e+00  
 -4.363040e-05 -1.906406e-04 0.000000e+00  
 -4.993116e-05 -1.966559e-04 0.000000e+00  
 -7.133282e-05 -1.893123e-04 0.000000e+00  
 7.428877e-05 -2.076851e-04 0.000000e+00  
 2.188680e-05 -1.988645e-04 0.000000e+00  
 1.208115e-05 -1.863208e-04 0.000000e+00  
 3.322089e-05 -1.937124e-04 0.000000e+00  
 4.835695e-05 -2.051194e-04 0.000000e+00  
 5.441793e-05 -2.017572e-04 0.000000e+00  
 1.428076e-05 -1.755890e-04 0.000000e+00  
 5.823134e-06 -1.648319e-04 0.000000e+00  
 -2.066700e-05 -1.820301e-04 0.000000e+00  
 -8.950457e-06 -1.817138e-04 0.000000e+00  
 -3.101459e-06 -1.663833e-04 0.000000e+00  
 -7.083477e-05 -1.850654e-04 0.000000e+00  
 -4.382060e-05 -1.761784e-04 0.000000e+00  
 -2.576794e-05 -1.707266e-04 0.000000e+00  
 -3.535569e-05 -1.692659e-04 0.000000e+00  
 -5.218426e-05 -1.725413e-04 0.000000e+00  
 5.452066e-05 -1.807753e-04 0.000000e+00  
 7.210946e-05 -1.811546e-04 0.000000e+00  
 3.560728e-05 -1.788156e-04 0.000000e+00  
 2.800525e-05 -1.705669e-04 0.000000e+00  
 5.008196e-05 -1.768101e-04 0.000000e+00  
 2.866768e-05 -1.610204e-04 0.000000e+00  
 1.099079e-05 -1.515064e-04 0.000000e+00  
 1.889673e-05 -1.504002e-04 0.000000e+00  
 7.016627e-05 -1.620651e-04 0.000000e+00  
 -1.177890e-05 -1.559888e-04 0.000000e+00  
 -5.476486e-06 -1.425944e-04 0.000000e+00  
 3.385056e-06 -1.415801e-04 0.000000e+00  
 -1.691037e-05 -1.569007e-04 0.000000e+00  
 -5.442536e-05 -1.594572e-04 0.000000e+00  
 -6.910348e-05 -1.583357e-04 0.000000e+00  
 -4.517386e-05 -1.492503e-04 0.000000e+00  
 -2.731977e-05 -1.454442e-04 0.000000e+00  
 -3.711404e-05 -1.516155e-04 0.000000e+00  
 -6.743211e-05 -1.434221e-04 0.000000e+00  
 4.952187e-05 -1.568921e-04 0.000000e+00  
 4.099150e-05 -1.535531e-04 0.000000e+00  
 2.425038e-05 -1.375391e-04 0.000000e+00  
 3.439051e-05 -1.389630e-04 0.000000e+00  
 1.902766e-05 -1.288508e-04 0.000000e+00  
 8.206395e-06 -1.293870e-04 0.000000e+00  
 5.425966e-05 -1.384125e-04 0.000000e+00  
 6.750845e-05 -1.397741e-04 0.000000e+00  
 2.043067e-06 -1.197041e-04 0.000000e+00  
 -2.459351e-05 -1.358328e-04 0.000000e+00  
 -8.066824e-06 -1.219901e-04 0.000000e+00  
 -1.171645e-05 -1.331192e-04 0.000000e+00  
 -2.877837e-05 -1.281428e-04 0.000000e+00  
 -4.766323e-05 -1.364869e-04 0.000000e+00  
 -3.438125e-05 -1.270533e-04 0.000000e+00  
 -5.252681e-05 -1.216116e-04 0.000000e+00  
 -6.471719e-05 -1.230853e-04 0.000000e+00  
 5.099693e-06 -1.108998e-04 0.000000e+00  
 1.992881e-07 -1.020418e-04 0.000000e+00  
 4.126555e-05 -1.291698e-04 0.000000e+00  
 4.592629e-05 -1.295596e-04 0.000000e+00  
 2.229635e-05 -1.191509e-04 0.000000e+00  
 3.239355e-05 -1.182537e-04 0.000000e+00  
 1.614491e-05 -1.091270e-04 0.000000e+00  
 1.813258e-05 -1.026056e-04 0.000000e+00  
 5.181330e-05 -1.177575e-04 0.000000e+00  
 6.435362e-05 -1.199003e-04 0.000000e+00  
 -1.508983e-05 -1.126220e-04 0.000000e+00  
 -9.082717e-06 -1.013220e-04 0.000000e+00  
 -1.925728e-05 -1.133393e-04 0.000000e+00  
 -2.864375e-05 -1.045559e-04 0.000000e+00  
 -3.780797e-05 -1.128146e-04 0.000000e+00  
 -4.481771e-05 -1.122927e-04 0.000000e+00  
 -1.189305e-05 -9.449119e-05 0.000000e+00  
 -4.752035e-05 -1.028986e-04 0.000000e+00  
 -6.153118e-05 -1.056222e-04 0.000000e+00  
 -6.462734e-06 -8.411304e-05 0.000000e+00  
 2.670258e-07 -8.298373e-05 0.000000e+00  
 5.833954e-06 -9.086942e-05 0.000000e+00  
 1.186951e-05 -9.111538e-05 0.000000e+00  
 3.517740e-05 -1.067136e-04 0.000000e+00  
 4.409442e-05 -1.068007e-04 0.000000e+00  
 2.916684e-05 -9.987689e-05 0.000000e+00  
 2.896149e-05 -9.053302e-05 0.000000e+00  
 1.691475e-05 -8.415253e-05 0.000000e+00  
 4.726623e-05 -9.874919e-05 0.000000e+00  
 6.072600e-05 -1.013216e-04 0.000000e+00  
 -2.778925e-05 -9.873985e-05 0.000000e+00  
 -2.074758e-05 -9.271190e-05 0.000000e+00  
 -3.557399e-05 -9.252100e-05 0.000000e+00  
 -4.287220e-05 -9.510776e-05 0.000000e+00  
 -1.297957e-05 -7.536961e-05 0.000000e+00  
 -2.082285e-05 -8.097629e-05 0.000000e+00  
 -4.713764e-05 -8.645294e-05 0.000000e+00  
 -5.770453e-05 -8.853314e-05 0.000000e+00  
 -1.184027e-05 -7.071906e-05 0.000000e+00  
 3.332519e-06 -7.367936e-05 0.000000e+00  
 -3.602646e-06 -6.640772e-05 0.000000e+00  
 1.599080e-05 -7.718222e-05 0.000000e+00  
 8.456984e-06 -7.181438e-05 0.000000e+00  
 3.288053e-05 -8.663061e-05 0.000000e+00  
 4.219626e-05 -8.982207e-05 0.000000e+00  
 2.991909e-05 -7.671809e-05 0.000000e+00  
 2.161779e-05 -7.264439e-05 0.000000e+00  
 4.627575e-05 -8.205586e-05 0.000000e+00  
 5.667991e-05 -8.435263e-05 0.000000e+00  
 -2.931633e-05 -7.759014e-05 0.000000e+00  
 -4.033672e-05 -7.678210e-05 0.000000e+00  
 -2.524176e-05 -6.674016e-05 0.000000e+00  
 -1.656195e-05 -6.370543e-05 0.000000e+00  
 -4.149679e-05 -7.056875e-05 0.000000e+00  
 -5.331830e-05 -7.263253e-05 0.000000e+00  
 -1.401234e-05 -5.622199e-05 0.000000e+00  
 -6.291125e-06 -5.371010e-05 0.000000e+00  
 -2.178797e-06 -5.897563e-05 0.000000e+00  
 9.794940e-06 -6.108451e-05 0.000000e+00  
 5.518532e-06 -5.648307e-05 0.000000e+00  
 1.773004e-05 -5.990010e-05 0.000000e+00  
 2.001015e-05 -6.209952e-05 0.000000e+00  
 3.943414e-05 -7.190245e-05 0.000000e+00  
 3.479360e-05 -7.084737e-05 0.000000e+00  
 2.843706e-05 -6.159203e-05 0.000000e+00  
 4.291267e-05 -6.648053e-05 0.000000e+00  
 5.201694e-05 -6.848171e-05 0.000000e+00  
 -2.875068e-05 -6.109987e-05 0.000000e+00  
 -3.696665e-05 -6.360697e-05 0.000000e+00  
 -2.479786e-05 -5.299243e-05 0.000000e+00  
 -1.744142e-05 -5.073953e-05 0.000000e+00  
 -3.902898e-05 -5.647545e-05 0.000000e+00  
 -4.880685e-05 -5.907376e-05 0.000000e+00  
 -1.451751e-05 -4.359277e-05 0.000000e+00  
 -8.038355e-06 -4.155107e-05 0.000000e+00  
 -4.568159e-06 -4.628461e-05 0.000000e+00  
 2.222385e-06 -4.405496e-05 0.000000e+00  
 6.163953e-06 -4.854911e-05 0.000000e+00  
 1.329632e-05 -4.642435e-05 0.000000e+00  
 1.693021e-05 -5.018179e-05 0.000000e+00  
 2.455437e-05 -4.892851e-05 0.000000e+00  
 2.982316e-05 -5.530397e-05 0.000000e+00  
 3.622723e-05 -5.579915e-05 0.000000e+00  
 3.764402e-05 -5.289612e-05 0.000000e+00  
 4.720843e-05 -5.501848e-05 0.000000e+00  
 -2.753773e-05 -4.767627e-05 0.000000e+00  
 -3.407200e-05 -4.957580e-05 0.000000e+00  
 -2.326987e-05 -4.051636e-05 0.000000e+00  
 -1.733868e-05 -3.868064e-05 0.000000e+00  
 -3.572043e-05 -4.369841e-05 0.000000e+00  
 -4.341826e-05 -4.577560e-05 0.000000e+00  
 -1.417660e-05 -3.234116e-05 0.000000e+00  
 -5.988613e-06 -3.468110e-05 0.000000e+00  
 -8.774311e-06 -3.055514e-05 0.000000e+00  
 -6.371854e-07 -3.303673e-05 0.000000e+00  
 2.983061e-06 -3.706940e-05 0.000000e+00  
 1.294448e-05 -3.977684e-05 0.000000e+00  
 8.495638e-06 -3.498183e-05 0.000000e+00  
 2.433884e-05 -4.309691e-05 0.000000e+00  
 1.908199e-05 -3.736916e-05 0.000000e+00  
 3.149266e-05 -4.173324e-05 0.000000e+00  
 4.232677e-05 -4.334745e-05 0.000000e+00  
 -2.539344e-05 -3.557331e-05 0.000000e+00  
 -3.025318e-05 -3.697070e-05 0.000000e+00  
 -2.070006e-05 -2.914875e-05 0.000000e+00  
 -1.632653e-05 -2.789259e-05 0.000000e+00  
 -1.253932e-05 -2.204509e-05 0.000000e+00  
 -3.136157e-05 -3.207678e-05 0.000000e+00  
 -3.743649e-05 -3.385956e-05 0.000000e+00  
 -8.553078e-06 -2.104587e-05 0.000000e+00  
 -6.663315e-06 -2.466923e-05 0.000000e+00  
 -5.589360e-06 -1.522467e-05 0.000000e+00  
 6.160072e-07 -2.558929e-05 0.000000e+00  
 -1.727286e-06 -2.302457e-05 0.000000e+00  
 4.174788e-06 -2.475208e-05 0.000000e+00  
 8.642588e-06 -2.969547e-05 0.000000e+00  
 1.836118e-05 -3.248675e-05 0.000000e+00  
 1.251254e-05 -2.781663e-05 0.000000e+00  
 2.101186e-05 -3.055206e-05 0.000000e+00  
 2.818577e-05 -3.451860e-05 0.000000e+00  
 2.969018e-05 -3.190473e-05 0.000000e+00  
 3.832053e-05 -3.549426e-05 0.000000e+00  
 -2.204979e-05 -2.486451e-05 0.000000e+00  
 -2.575985e-05 -2.596143e-05 0.000000e+00  
 -1.726055e-05 -1.934632e-05 0.000000e+00  
 -1.364775e-05 -1.835047e-05 0.000000e+00  
 -9.750513e-06 -1.332137e-05 0.000000e+00  
 -6.056774e-06 -1.261824e-05 0.000000e+00  
 -2.618671e-05 -2.207762e-05 0.000000e+00  
 -3.101929e-05 -2.367512e-05 0.000000e+00  
 -9.151781e-07 -1.512102e-05 0.000000e+00  
 -4.347490e-07 -7.068613e-06 0.000000e+00  
 -3.282412e-06 -7.537093e-06 0.000000e+00  
 3.819184e-06 -1.570656e-05 0.000000e+00  
 5.365446e-06 -1.892212e-05 0.000000e+00  
 1.141967e-05 -2.097154e-05 0.000000e+00  
 1.184240e-05 -2.050828e-05 0.000000e+00  
 1.878070e-05 -2.356273e-05 0.000000e+00  
 1.958117e-05 -2.270183e-05 0.000000e+00  
 2.602336e-05 -2.559431e-05 0.000000e+00  
 2.677264e-05 -2.413338e-05 0.000000e+00  
 3.284508e-05 -2.635780e-05 0.000000e+00  
 -1.763844e-05 -1.587495e-05 0.000000e+00  
 -2.083904e-05 -1.690605e-05 0.000000e+00  
 -1.321557e-05 -1.159644e-05 0.000000e+00  
 -9.619634e-06 -1.042011e-05 0.000000e+00  
 -6.184931e-06 -6.678659e-06 0.000000e+00  
 -3.151390e-06 -5.204412e-06 0.000000e+00  
 0.000000e+00 0.000000e+00 0.000000e+00  
 -2.059260e-05 -1.403315e-05 0.000000e+00  
 -2.448833e-05 -1.549431e-05 0.000000e+00  
 4.356054e-06 -1.206657e-05 0.000000e+00  
 -2.916725e-07 -6.662795e-06 0.000000e+00  
 1.937657e-06 -7.322524e-06 0.000000e+00  
 0.000000e+00 0.000000e+00 0.000000e+00  
 1.033883e-05 -1.480349e-05 0.000000e+00  
 7.401481e-06 -1.200423e-05 0.000000e+00  
 1.708569e-05 -1.712125e-05 0.000000e+00  
 1.358402e-05 -1.428724e-05 0.000000e+00  
 2.107638e-05 -1.667629e-05 0.000000e+00  
 2.183418e-05 -1.724287e-05 0.000000e+00  
 2.726621e-05 -1.864441e-05 0.000000e+00  
 -1.265182e-05 -8.878557e-06 0.000000e+00  
 -1.561780e-05 -9.882403e-06 0.000000e+00  
 -8.301813e-06 -5.586578e-06 0.000000e+00  
 -5.130539e-06 -4.331228e-06 0.000000e+00  
 0.000000e+00 0.000000e+00 0.000000e+00  
 -1.502525e-05 -8.031767e-06 0.000000e+00  
 -1.834915e-05 -9.358716e-06 0.000000e+00  
 5.556202e-06 -6.940366e-06 0.000000e+00  
 2.017991e-06 -3.873521e-06 0.000000e+00  
 0.000000e+00 0.000000e+00 0.000000e+00  
 6.376209e-06 -6.641923e-06 0.000000e+00  
 1.156397e-05 -1.035731e-05 0.000000e+00  
 1.786546e-05 -1.276701e-05 0.000000e+00  
 1.276860e-05 -9.834789e-06 0.000000e+00  
 1.822603e-05 -1.139208e-05 0.000000e+00  
 2.266581e-05 -1.345505e-05 0.000000e+00  
 -1.010355e-05 -4.603576e-06 0.000000e+00  
 -7.209569e-06 -3.891072e-06 0.000000e+00  
 0.000000e+00 0.000000e+00 0.000000e+00  
 -9.752722e-06 -3.671178e-06 0.000000e+00  
 -1.353273e-05 -5.313857e-06 0.000000e+00  
 4.299680e-06 -3.610490e-06 0.000000e+00  
 0.000000e+00 0.000000e+00 0.000000e+00  
 8.323699e-06 -5.111479e-06 0.000000e+00  
 9.860741e-06 -6.081496e-06 0.000000e+00  
 1.403895e-05 -7.602119e-06 0.000000e+00  
 1.395632e-05 -6.964991e-06 0.000000e+00  
 1.751696e-05 -8.565894e-06 0.000000e+00  
 -7.384743e-06 -2.239728e-06 0.000000e+00  
 0.000000e+00 0.000000e+00 0.000000e+00  
 -7.024026e-06 -1.561583e-06 0.000000e+00  
 -9.749920e-06 -2.677238e-06 0.000000e+00  
 5.794776e-06 -2.884457e-06 0.000000e+00  
 0.000000e+00 0.000000e+00 0.000000e+00  
 8.807271e-06 -3.337440e-06 0.000000e+00  
 1.011144e-05 -3.902129e-06 0.000000e+00  
 1.303419e-05 -4.849509e-06 0.000000e+00  
 -5.240817e-06 -7.331396e-07 0.000000e+00  
 0.000000e+00 0.000000e+00 0.000000e+00  
 -5.055915e-06 -2.861504e-07 0.000000e+00  
 -6.950336e-06 -8.208679e-07 0.000000e+00  
 -6.317158e-06 -5.799503e-07 0.000000e+00  
 6.694395e-06 -1.945464e-06 0.000000e+00  
 0.000000e+00 0.000000e+00 0.000000e+00  
 7.060899e-06 -1.578779e-06 0.000000e+00  
 6.244066e-06 -1.149058e-06 0.000000e+00  
 1.096158e-05 -3.310626e-06 0.000000e+00  
 9.230088e-06 -2.480415e-06 0.000000e+00  
 -3.626326e-06 2.042428e-07 0.000000e+00  
 0.000000e+00 0.000000e+00 0.000000e+00  
 -3.544833e-06 4.085241e-07 0.000000e+00  
 -4.908536e-06 3.527278e-07 0.000000e+00  
 2.807644e-06 -1.178969e-07 0.000000e+00  
 0.000000e+00 0.000000e+00 0.000000e+00  
 3.498138e-06 5.051565e-08 0.000000e+00  
 6.604568e-06 -8.707029e-07 0.000000e+00  
 4.440130e-06 -3.021634e-08 0.000000e+00  
 7.537829e-06 -1.243538e-06 0.000000e+00  
 6.663514e-06 -8.038271e-07 0.000000e+00  
 -2.320544e-06 6.609463e-07 0.000000e+00  
 0.000000e+00 0.000000e+00 0.000000e+00  
 -2.286416e-06 8.266463e-07 0.000000e+00  
 -3.277055e-06 1.063980e-06 0.000000e+00  
 1.312918e-06 3.368858e-07 0.000000e+00  
 0.000000e+00 0.000000e+00 0.000000e+00  
 2.175041e-06 4.932516e-07 0.000000e+00  
 4.543685e-06 1.874148e-07 0.000000e+00  
 3.220632e-06 5.499418e-07 0.000000e+00  
 5.455208e-06 7.015288e-08 0.000000e+00  
 -1.388348e-06 8.379197e-07 0.000000e+00  
 0.000000e+00 0.000000e+00 0.000000e+00  
 -1.395460e-06 9.307308e-07 0.000000e+00  
 -2.088370e-06 1.289853e-06 0.000000e+00  
 0.000000e+00 0.000000e+00 0.000000e+00  
 1.465241e-06 6.596198e-07 0.000000e+00  
 8.686546e-07 4.916337e-07 0.000000e+00  
 2.145205e-06 8.988686e-07 0.000000e+00  
 3.387944e-06 8.775436e-07 0.000000e+00  
 3.673972e-06 9.507330e-07 0.000000e+00  
 -7.953722e-07 8.537216e-07 0.000000e+00  
 0.000000e+00 0.000000e+00 0.000000e+00  
 -8.069123e-07 8.746981e-07 0.000000e+00  
 -1.289614e-06 1.293707e-06 0.000000e+00  
 0.000000e+00 0.000000e+00 0.000000e+00  
 9.748698e-07 7.551012e-07 0.000000e+00  
 3.820171e-07 4.499306e-07 0.000000e+00  
 1.243926e-06 9.354254e-07 0.000000e+00  
 1.986914e-06 1.109577e-06 0.000000e+00  
 2.339747e-06 1.277053e-06 0.000000e+00  
 0.000000e+00 0.000000e+00 0.000000e+00  
 -3.775815e-07 7.582608e-07 0.000000e+00  
 -4.679908e-07 8.250357e-07 0.000000e+00  
 -7.322285e-07 1.223529e-06 0.000000e+00  
 0.000000e+00 0.000000e+00 0.000000e+00  
 2.097177e-07 4.703106e-07 0.000000e+00  
 5.195820e-07 7.177516e-07 0.000000e+00  
 0.000000e+00 0.000000e+00 0.000000e+00  
 0.000000e+00 0.000000e+00 0.000000e+00  
 1.193231e-06 1.143749e-06 0.000000e+00  
 6.804758e-07 8.991763e-07 0.000000e+00  
 1.400751e-06 1.320533e-06 0.000000e+00  
 -2.213040e-07 7.934661e-07 0.000000e+00  
 -1.159445e-07 6.771435e-07 0.000000e+00  
 -3.364158e-07 1.155423e-06 0.000000e+00  
 2.124438e-07 8.135804e-07 0.000000e+00  
 2.772710e-07 7.632025e-07 0.000000e+00  
 8.570207e-08 6.680870e-07 0.000000e+00  
 6.472764e-07 1.102545e-06 0.000000e+00  
 -8.677919e-09 7.830282e-07 0.000000e+00  
 7.204268e-07 1.228598e-06 0.000000e+00  
 -9.047741e-09 1.129803e-06 0.000000e+00  
 2.953029e-07 1.157363e-06 0.000000e+00  
  
 