# vtk DataFile Version 1.0 
PolyMesh 
ASCII 
 
DATASET POLYDATA 
 
POINTS 2002 float 
2.500222e+00 2.061057e-02 0.000000e+00  
 2.495776e+00 6.936702e-02 0.000000e+00  
 2.470192e+00 1.848063e-02 0.000000e+00  
 2.458166e+00 -3.722351e-03 0.000000e+00  
 2.474120e+00 -2.939950e-02 0.000000e+00  
 2.499723e+00 -3.105213e-02 0.000000e+00  
 2.486451e+00 1.182629e-01 0.000000e+00  
 2.453614e+00 4.008984e-02 0.000000e+00  
 2.430502e+00 3.730561e-02 0.000000e+00  
 2.464631e+00 6.512766e-02 0.000000e+00  
 2.448142e+00 8.440325e-02 0.000000e+00  
 2.456295e+00 1.108385e-01 0.000000e+00  
 2.430307e+00 -6.460549e-03 0.000000e+00  
 2.389722e+00 1.278789e-02 0.000000e+00  
 2.419130e+00 1.143062e-02 0.000000e+00  
 2.423351e+00 -2.436576e-02 0.000000e+00  
 2.452780e+00 -5.234684e-02 0.000000e+00  
 2.444439e+00 -5.170559e-02 0.000000e+00  
 2.470392e+00 -7.970566e-02 0.000000e+00  
 2.493712e+00 -8.349094e-02 0.000000e+00  
 2.380395e+00 2.276630e-03 0.000000e+00  
 2.472150e+00 1.664883e-01 0.000000e+00  
 2.436827e+00 1.282570e-01 0.000000e+00  
 2.443140e+00 1.561306e-01 0.000000e+00  
 2.419150e+00 7.917690e-02 0.000000e+00  
 2.382141e+00 4.688272e-02 0.000000e+00  
 2.413787e+00 5.691149e-02 0.000000e+00  
 2.407519e+00 9.318799e-02 0.000000e+00  
 2.413397e+00 1.214563e-01 0.000000e+00  
 2.377740e+00 4.937681e-02 0.000000e+00  
 2.343525e+00 8.691693e-03 0.000000e+00  
 2.344352e+00 3.741475e-02 0.000000e+00  
 2.339069e+00 4.331673e-03 0.000000e+00  
 2.300448e+00 6.290170e-03 0.000000e+00  
 2.383438e+00 -2.486871e-02 0.000000e+00  
 2.399254e+00 -3.327196e-02 0.000000e+00  
 2.420254e+00 -7.314131e-02 0.000000e+00  
 2.400928e+00 -6.457626e-02 0.000000e+00  
 2.425760e+00 -9.535467e-02 0.000000e+00  
 2.446117e+00 -1.027493e-01 0.000000e+00  
 2.454099e+00 -1.256422e-01 0.000000e+00  
 2.482098e+00 -1.347680e-01 0.000000e+00  
 2.467227e+00 -1.795294e-01 0.000000e+00  
 2.361752e+00 -3.755998e-02 0.000000e+00  
 2.340289e+00 -2.959723e-02 0.000000e+00  
 2.327029e+00 -3.815960e-02 0.000000e+00  
 2.298799e+00 -3.234929e-02 0.000000e+00  
 2.452928e+00 2.133077e-01 0.000000e+00  
 2.421072e+00 1.723041e-01 0.000000e+00  
 2.423816e+00 1.992129e-01 0.000000e+00  
 2.396566e+00 1.610802e-01 0.000000e+00  
 2.395465e+00 1.361539e-01 0.000000e+00  
 2.368813e+00 8.468884e-02 0.000000e+00  
 2.372509e+00 8.995426e-02 0.000000e+00  
 2.366095e+00 1.231194e-01 0.000000e+00  
 2.335411e+00 8.084664e-02 0.000000e+00  
 2.330784e+00 4.935669e-02 0.000000e+00  
 2.297571e+00 4.242850e-02 0.000000e+00  
 2.364873e+00 -6.925389e-02 0.000000e+00  
 2.377433e+00 -7.682445e-02 0.000000e+00  
 2.404901e+00 -1.129377e-01 0.000000e+00  
 2.379820e+00 -1.013348e-01 0.000000e+00  
 2.407575e+00 -1.357834e-01 0.000000e+00  
 2.430687e+00 -1.467015e-01 0.000000e+00  
 2.435228e+00 -1.681445e-01 0.000000e+00  
 2.418418e+00 -1.844269e-01 0.000000e+00  
 2.423963e+00 -2.132465e-01 0.000000e+00  
 2.447341e+00 -2.248188e-01 0.000000e+00  
 2.331769e+00 -7.920768e-02 0.000000e+00  
 2.329425e+00 -7.712410e-02 0.000000e+00  
 2.290848e+00 -7.487420e-02 0.000000e+00  
 2.429268e+00 2.576199e-01 0.000000e+00  
 2.400445e+00 2.136483e-01 0.000000e+00  
 2.400982e+00 2.404019e-01 0.000000e+00  
 2.377302e+00 1.741771e-01 0.000000e+00  
 2.377109e+00 2.006244e-01 0.000000e+00  
 2.353832e+00 1.299832e-01 0.000000e+00  
 2.350868e+00 1.611804e-01 0.000000e+00  
 2.326899e+00 1.185829e-01 0.000000e+00  
 2.324707e+00 9.139657e-02 0.000000e+00  
 2.288895e+00 8.287459e-02 0.000000e+00  
 2.333048e+00 -1.041628e-01 0.000000e+00  
 2.358578e+00 -1.187466e-01 0.000000e+00  
 2.359897e+00 -1.346104e-01 0.000000e+00  
 2.386480e+00 -1.510087e-01 0.000000e+00  
 2.384690e+00 -1.784078e-01 0.000000e+00  
 2.396890e+00 -2.267708e-01 0.000000e+00  
 2.379201e+00 -2.132021e-01 0.000000e+00  
 2.396309e+00 -2.504628e-01 0.000000e+00  
 2.422436e+00 -2.686273e-01 0.000000e+00  
 2.312369e+00 -1.197239e-01 0.000000e+00  
 2.281241e+00 -1.060513e-01 0.000000e+00  
 2.401374e+00 2.992092e-01 0.000000e+00  
 2.375472e+00 2.537919e-01 0.000000e+00  
 2.374305e+00 2.787988e-01 0.000000e+00  
 2.353816e+00 2.386992e-01 0.000000e+00  
 2.355041e+00 2.132522e-01 0.000000e+00  
 2.331601e+00 1.988294e-01 0.000000e+00  
 2.333667e+00 1.707350e-01 0.000000e+00  
 2.308819e+00 1.577581e-01 0.000000e+00  
 2.308666e+00 1.321616e-01 0.000000e+00  
 2.276603e+00 1.176541e-01 0.000000e+00  
 2.337048e+00 -1.561252e-01 0.000000e+00  
 2.314824e+00 -1.479193e-01 0.000000e+00  
 2.344107e+00 -1.772209e-01 0.000000e+00  
 2.335075e+00 -1.956803e-01 0.000000e+00  
 2.355860e+00 -2.200347e-01 0.000000e+00  
 2.347972e+00 -2.425562e-01 0.000000e+00  
 2.370433e+00 -2.629744e-01 0.000000e+00  
 2.367336e+00 -2.835121e-01 0.000000e+00  
 2.395506e+00 -3.068037e-01 0.000000e+00  
 2.296508e+00 -1.599154e-01 0.000000e+00  
 2.264532e+00 -1.428236e-01 0.000000e+00  
 2.370002e+00 3.371750e-01 0.000000e+00  
 2.346300e+00 2.918746e-01 0.000000e+00  
 2.344108e+00 3.133983e-01 0.000000e+00  
 2.326020e+00 2.742968e-01 0.000000e+00  
 2.328089e+00 2.513351e-01 0.000000e+00  
 2.307166e+00 2.348940e-01 0.000000e+00  
 2.309623e+00 2.098802e-01 0.000000e+00  
 2.287081e+00 1.944381e-01 0.000000e+00  
 2.288861e+00 1.701494e-01 0.000000e+00  
 2.259050e+00 1.525420e-01 0.000000e+00  
 2.314110e+00 -2.011412e-01 0.000000e+00  
 2.294253e+00 -1.857280e-01 0.000000e+00  
 2.327823e+00 -2.486632e-01 0.000000e+00  
 2.306703e+00 -2.315234e-01 0.000000e+00  
 2.319884e+00 -2.773593e-01 0.000000e+00  
 2.341028e+00 -2.961572e-01 0.000000e+00  
 2.338637e+00 -3.146843e-01 0.000000e+00  
 2.366478e+00 -3.408665e-01 0.000000e+00  
 2.336084e+00 -3.707588e-01 0.000000e+00  
 2.269534e+00 -1.959962e-01 0.000000e+00  
 2.243633e+00 -1.763055e-01 0.000000e+00  
 2.336280e+00 3.707558e-01 0.000000e+00  
 2.313725e+00 3.272463e-01 0.000000e+00  
 2.311462e+00 3.435086e-01 0.000000e+00  
 2.294131e+00 3.066466e-01 0.000000e+00  
 2.296684e+00 2.871542e-01 0.000000e+00  
 2.277633e+00 2.683458e-01 0.000000e+00  
 2.280789e+00 2.463372e-01 0.000000e+00  
 2.260729e+00 2.283905e-01 0.000000e+00  
 2.264157e+00 2.059557e-01 0.000000e+00  
 2.237170e+00 1.847496e-01 0.000000e+00  
 2.283451e+00 -2.382390e-01 0.000000e+00  
 2.265429e+00 -2.231102e-01 0.000000e+00  
 2.296440e+00 -2.834379e-01 0.000000e+00  
 2.277952e+00 -2.667181e-01 0.000000e+00  
 2.288735e+00 -3.131424e-01 0.000000e+00  
 2.307780e+00 -3.318580e-01 0.000000e+00  
 2.307401e+00 -3.423239e-01 0.000000e+00  
 2.279139e+00 -3.666441e-01 0.000000e+00  
 2.300444e+00 -4.001757e-01 0.000000e+00  
 2.239981e+00 -2.307322e-01 0.000000e+00  
 2.216675e+00 -2.085534e-01 0.000000e+00  
 2.301784e+00 3.993624e-01 0.000000e+00  
 2.279556e+00 3.594611e-01 0.000000e+00  
 2.278230e+00 3.719138e-01 0.000000e+00  
 2.262256e+00 3.200078e-01 0.000000e+00  
 2.259800e+00 3.380555e-01 0.000000e+00  
 2.247615e+00 2.795665e-01 0.000000e+00  
 2.243926e+00 2.999009e-01 0.000000e+00  
 2.229591e+00 2.597952e-01 0.000000e+00  
 2.234358e+00 2.386879e-01 0.000000e+00  
 2.210668e+00 2.145373e-01 0.000000e+00  
 2.249816e+00 -2.746475e-01 0.000000e+00  
 2.263098e+00 -3.178059e-01 0.000000e+00  
 2.233244e+00 -2.575159e-01 0.000000e+00  
 2.245113e+00 -2.981771e-01 0.000000e+00  
 2.252829e+00 -3.456606e-01 0.000000e+00  
 2.263395e+00 -3.641577e-01 0.000000e+00  
 2.243864e+00 -3.904871e-01 0.000000e+00  
 2.264433e+00 -4.250068e-01 0.000000e+00  
 2.207293e+00 -2.624977e-01 0.000000e+00  
 2.184354e+00 -2.374360e-01 0.000000e+00  
 2.248086e+00 3.897294e-01 0.000000e+00  
 2.259708e+00 4.275217e-01 0.000000e+00  
 2.233170e+00 4.425766e-01 0.000000e+00  
 2.229263e+00 3.512890e-01 0.000000e+00  
 2.229100e+00 3.817820e-01 0.000000e+00  
 2.208848e+00 3.357355e-01 0.000000e+00  
 2.213533e+00 3.104515e-01 0.000000e+00  
 2.194177e+00 2.899530e-01 0.000000e+00  
 2.200615e+00 2.685105e-01 0.000000e+00  
 2.179053e+00 2.415267e-01 0.000000e+00  
 2.192639e+00 4.618581e-01 0.000000e+00  
 2.223944e+00 -4.476744e-01 0.000000e+00  
 2.196054e+00 -2.937201e-01 0.000000e+00  
 2.213877e+00 -3.426901e-01 0.000000e+00  
 2.214142e+00 -3.082362e-01 0.000000e+00  
 2.206010e+00 -3.505853e-01 0.000000e+00  
 2.217963e+00 -3.902051e-01 0.000000e+00  
 2.205099e+00 -4.046493e-01 0.000000e+00  
 2.177627e+00 -2.968333e-01 0.000000e+00  
 2.151715e+00 -2.596149e-01 0.000000e+00  
 2.206758e+00 3.946281e-01 0.000000e+00  
 2.204100e+00 4.045828e-01 0.000000e+00  
 2.175485e+00 4.239586e-01 0.000000e+00  
 2.178013e+00 3.671055e-01 0.000000e+00  
 2.185402e+00 3.449302e-01 0.000000e+00  
 2.158634e+00 3.187510e-01 0.000000e+00  
 2.167611e+00 2.976752e-01 0.000000e+00  
 2.142978e+00 2.647399e-01 0.000000e+00  
 2.167056e+00 4.222922e-01 0.000000e+00  
 2.140731e+00 4.451151e-01 0.000000e+00  
 2.150064e+00 4.774795e-01 0.000000e+00  
 2.184760e+00 -4.652091e-01 0.000000e+00  
 2.178112e+00 -4.060363e-01 0.000000e+00  
 2.165702e+00 -4.218962e-01 0.000000e+00  
 2.179519e+00 -3.505336e-01 0.000000e+00  
 2.162137e+00 -3.171682e-01 0.000000e+00  
 2.162523e+00 -3.711140e-01 0.000000e+00  
 2.138563e+00 -3.178200e-01 0.000000e+00  
 2.119839e+00 -2.756468e-01 0.000000e+00  
 2.153979e+00 3.766487e-01 0.000000e+00  
 2.148940e+00 3.947611e-01 0.000000e+00  
 2.131900e+00 3.554945e-01 0.000000e+00  
 2.136686e+00 3.261655e-01 0.000000e+00  
 2.121209e+00 3.156293e-01 0.000000e+00  
 2.116290e+00 2.768512e-01 0.000000e+00  
 2.116444e+00 4.060020e-01 0.000000e+00  
 2.116825e+00 4.362993e-01 0.000000e+00  
 2.100324e+00 4.473757e-01 0.000000e+00  
 2.105663e+00 4.892701e-01 0.000000e+00  
 2.141335e+00 -4.802553e-01 0.000000e+00  
 2.138109e+00 -4.250014e-01 0.000000e+00  
 2.127654e+00 -4.417152e-01 0.000000e+00  
 2.095059e+00 -4.914587e-01 0.000000e+00  
 2.117607e+00 -3.907690e-01 0.000000e+00  
 2.135046e+00 -3.702646e-01 0.000000e+00  
 2.121674e+00 -3.353720e-01 0.000000e+00  
 2.096394e+00 -3.329460e-01 0.000000e+00  
 2.086451e+00 -2.877775e-01 0.000000e+00  
[...]
 POINT_DATA 2002 
 VECTORS Displacement float 
 -5.556563e-08 1.045398e-06 0.000000e+00  
 -1.883990e-07 1.054376e-06 0.000000e+00  
 -4.807627e-08 9.564618e-07 0.000000e+00  
 8.340738e-09 9.117914e-07 0.000000e+00  
 7.565881e-08 9.725744e-07 0.000000e+00  
 8.252737e-08 1.046915e-06 0.000000e+00  
 -3.329883e-07 1.073432e-06 0.000000e+00  
 -9.993117e-08 9.057016e-07 0.000000e+00  
 -8.631187e-08 8.123481e-07 0.000000e+00  
 -1.692191e-07 9.608004e-07 0.000000e+00  
 -2.157450e-07 9.211018e-07 0.000000e+00  
 -2.989356e-07 9.799340e-07 0.000000e+00  
 1.389231e-08 8.010508e-07 0.000000e+00  
 -2.330813e-08 6.046881e-07 0.000000e+00  
 -2.520686e-08 7.523945e-07 0.000000e+00  
 5.325441e-08 7.743787e-07 0.000000e+00  
 1.301853e-07 9.092176e-07 0.000000e+00  
 1.255881e-07 8.773776e-07 0.000000e+00  
 2.116676e-07 9.914631e-07 0.000000e+00  
 2.281319e-07 1.059566e-06 0.000000e+00  
 -3.228260e-09 5.522711e-07 0.000000e+00  
 -4.963487e-07 1.100610e-06 0.000000e+00  
 -3.427668e-07 9.392631e-07 0.000000e+00  
 -4.463447e-07 1.006452e-06 0.000000e+00  
 -1.832338e-07 7.997782e-07 0.000000e+00  
 -8.386817e-08 5.830296e-07 0.000000e+00  
 -1.250411e-07 7.529784e-07 0.000000e+00  
 -2.106261e-07 7.680256e-07 0.000000e+00  
 -2.999709e-07 8.386393e-07 0.000000e+00  
 -8.462962e-08 5.602500e-07 0.000000e+00  
 -8.475879e-09 3.224690e-07 0.000000e+00  
 -4.037791e-08 3.432209e-07 0.000000e+00  
 -3.709021e-09 2.924714e-07 0.000000e+00  
 0.000000e+00 0.000000e+00 0.000000e+00  
 4.245701e-08 5.731346e-07 0.000000e+00  
 6.431136e-08 6.635114e-07 0.000000e+00  
 1.681138e-07 7.972927e-07 0.000000e+00  
 1.332999e-07 6.979394e-07 0.000000e+00  
 2.325967e-07 8.479238e-07 0.000000e+00  
 2.683041e-07 9.345169e-07 0.000000e+00  
 3.462122e-07 9.926415e-07 0.000000e+00  
 3.867199e-07 1.082190e-06 0.000000e+00  
 5.466282e-07 1.108835e-06 0.000000e+00  
 5.247114e-08 4.540265e-07 0.000000e+00  
 2.916432e-08 3.081702e-07 0.000000e+00  
 2.701332e-08 2.225497e-07 0.000000e+00  
 0.000000e+00 0.000000e+00 0.000000e+00  
 -6.856756e-07 1.132419e-06 0.000000e+00  
 -4.930612e-07 9.660863e-07 0.000000e+00  
 -6.124817e-07 1.031071e-06 0.000000e+00  
 -4.212336e-07 8.507180e-07 0.000000e+00  
 -3.281385e-07 7.912640e-07 0.000000e+00  
 -1.469301e-07 5.570592e-07 0.000000e+00  
 -1.625763e-07 5.870013e-07 0.000000e+00  
 -2.416683e-07 6.188323e-07 0.000000e+00  
 -8.985383e-08 3.444623e-07 0.000000e+00  
 -4.204731e-08 2.635018e-07 0.000000e+00  
 0.000000e+00 0.000000e+00 0.000000e+00  
 1.088079e-07 5.092335e-07 0.000000e+00  
 1.389972e-07 5.920122e-07 0.000000e+00  
 2.652119e-07 7.873314e-07 0.000000e+00  
 2.017019e-07 6.454571e-07 0.000000e+00  
 3.421591e-07 8.412131e-07 0.000000e+00  
 4.030198e-07 9.488782e-07 0.000000e+00  
 4.882304e-07 1.003887e-06 0.000000e+00  
 5.427341e-07 9.827204e-07 0.000000e+00  
 6.784911e-07 1.060716e-06 0.000000e+00  
 7.378412e-07 1.139877e-06 0.000000e+00  
 8.175529e-08 3.161431e-07 0.000000e+00  
 7.176127e-08 2.971248e-07 0.000000e+00  
 0.000000e+00 0.000000e+00 0.000000e+00  
 -9.053830e-07 1.163526e-06 0.000000e+00  
 -6.636560e-07 9.923208e-07 0.000000e+00  
 -8.079000e-07 1.058452e-06 0.000000e+00  
 -4.473411e-07 8.043627e-07 0.000000e+00  
 -5.703561e-07 8.756910e-07 0.000000e+00  
 -2.396162e-07 5.707906e-07 0.000000e+00  
 -3.431141e-07 6.418538e-07 0.000000e+00  
 -1.494308e-07 3.763022e-07 0.000000e+00  
 -8.758488e-08 2.939608e-07 0.000000e+00  
 0.000000e+00 0.000000e+00 0.000000e+00  
 1.285010e-07 3.776024e-07 0.000000e+00  
 2.169142e-07 5.688262e-07 0.000000e+00  
 2.675008e-07 6.144721e-07 0.000000e+00  
 3.684442e-07 7.841601e-07 0.000000e+00  
 4.768139e-07 8.475725e-07 0.000000e+00  
 7.288452e-07 1.012989e-06 0.000000e+00  
 6.372537e-07 9.183836e-07 0.000000e+00  
 8.630514e-07 1.069388e-06 0.000000e+00  
 9.673988e-07 1.170447e-06 0.000000e+00  
 1.162535e-07 2.824547e-07 0.000000e+00  
 0.000000e+00 0.000000e+00 0.000000e+00  
 -1.163025e-06 1.187786e-06 0.000000e+00  
 -8.711716e-07 1.018762e-06 0.000000e+00  
 -1.036104e-06 1.080158e-06 0.000000e+00  
 -7.515887e-07 9.023212e-07 0.000000e+00  
 -6.013886e-07 8.269017e-07 0.000000e+00  
 -4.714339e-07 6.713632e-07 0.000000e+00  
 -3.413256e-07 5.831196e-07 0.000000e+00  
 -2.175285e-07 3.883417e-07 0.000000e+00  
 -1.356339e-07 2.963304e-07 0.000000e+00  
 0.000000e+00 0.000000e+00 0.000000e+00  
 2.918989e-07 5.529398e-07 0.000000e+00  
 2.013753e-07 3.908080e-07 0.000000e+00  
 3.961634e-07 6.591053e-07 0.000000e+00  
 4.644487e-07 6.770850e-07 0.000000e+00  
 6.413975e-07 8.506063e-07 0.000000e+00  
 7.673706e-07 8.933794e-07 0.000000e+00  
 9.268142e-07 1.028618e-06 0.000000e+00  
 1.066833e-06 1.073687e-06 0.000000e+00  
 1.216697e-06 1.190925e-06 0.000000e+00  
 1.830882e-07 3.178342e-07 0.000000e+00  
 0.000000e+00 0.000000e+00 0.000000e+00  
 -1.460311e-06 1.197262e-06 0.000000e+00  
 -1.123524e-06 1.038216e-06 0.000000e+00  
 -1.296639e-06 1.087941e-06 0.000000e+00  
 -9.682836e-07 9.205600e-07 0.000000e+00  
 -7.959932e-07 8.496429e-07 0.000000e+00  
 -6.300915e-07 6.970615e-07 0.000000e+00  
 -4.726920e-07 6.056251e-07 0.000000e+00  
 -3.048279e-07 4.085611e-07 0.000000e+00  
 -1.947670e-07 3.095912e-07 0.000000e+00  
 0.000000e+00 0.000000e+00 0.000000e+00  
 4.348578e-07 5.931859e-07 0.000000e+00  
 2.863084e-07 4.130317e-07 0.000000e+00  
 7.742337e-07 8.393358e-07 0.000000e+00  
 6.041251e-07 6.813819e-07 0.000000e+00  
 9.839198e-07 9.106315e-07 0.000000e+00  
 1.155067e-06 1.036140e-06 0.000000e+00  
 1.308263e-06 1.077919e-06 0.000000e+00  
 1.493533e-06 1.197111e-06 0.000000e+00  
 1.795184e-06 1.185229e-06 0.000000e+00  
 2.371880e-07 3.057310e-07 0.000000e+00  
 0.000000e+00 0.000000e+00 0.000000e+00  
 -1.794384e-06 1.184478e-06 0.000000e+00  
 -1.428632e-06 1.043125e-06 0.000000e+00  
 -1.586299e-06 1.076010e-06 0.000000e+00  
 -1.224674e-06 9.231408e-07 0.000000e+00  
 -1.039818e-06 8.642967e-07 0.000000e+00  
 -8.241053e-07 7.119935e-07 0.000000e+00  
 -6.387355e-07 6.258750e-07 0.000000e+00  
 -4.149365e-07 4.268015e-07 0.000000e+00  
 -2.719931e-07 3.251496e-07 0.000000e+00  
 0.000000e+00 0.000000e+00 0.000000e+00  
 5.804679e-07 6.004317e-07 0.000000e+00  
 3.947035e-07 4.246668e-07 0.000000e+00  
 1.002416e-06 8.498390e-07 0.000000e+00  
 8.079235e-07 7.055395e-07 0.000000e+00  
 1.285457e-06 9.283561e-07 0.000000e+00  
 1.474881e-06 1.040548e-06 0.000000e+00  
 1.577231e-06 1.065831e-06 0.000000e+00  
 1.872839e-06 1.038952e-06 0.000000e+00  
 2.170019e-06 1.145252e-06 0.000000e+00  
 3.289556e-07 3.193210e-07 0.000000e+00  
 0.000000e+00 0.000000e+00 0.000000e+00  
 -2.153534e-06 1.144483e-06 0.000000e+00  
 -1.790558e-06 1.026643e-06 0.000000e+00  
 -1.932053e-06 1.047691e-06 0.000000e+00  
 -1.344726e-06 8.641189e-07 0.000000e+00  
 -1.558601e-06 9.137966e-07 0.000000e+00  
 -8.512732e-07 6.375825e-07 0.000000e+00  
 -1.079008e-06 7.175873e-07 0.000000e+00  
 -5.600230e-07 4.405166e-07 0.000000e+00  
 -3.698698e-07 3.364297e-07 0.000000e+00  
 0.000000e+00 0.000000e+00 0.000000e+00  
 8.026593e-07 6.224726e-07 0.000000e+00  
 1.316028e-06 8.580057e-07 0.000000e+00  
 5.503577e-07 4.457905e-07 0.000000e+00  
 1.058235e-06 7.133263e-07 0.000000e+00  
 1.654876e-06 9.117688e-07 0.000000e+00  
 1.870759e-06 9.939049e-07 0.000000e+00  
 2.245710e-06 9.757755e-07 0.000000e+00  
 2.574738e-06 1.070431e-06 0.000000e+00  
 4.698393e-07 3.431998e-07 0.000000e+00  
 0.000000e+00 0.000000e+00 0.000000e+00  
 -2.222079e-06 9.867118e-07 0.000000e+00  
 -2.619908e-06 1.058307e-06 0.000000e+00  
 -2.941912e-06 9.731130e-07 0.000000e+00  
 -1.744844e-06 8.523659e-07 0.000000e+00  
 -2.168852e-06 9.202237e-07 0.000000e+00  
 -1.521128e-06 7.355720e-07 0.000000e+00  
 -1.150798e-06 6.488140e-07 0.000000e+00  
 -7.852026e-07 4.576520e-07 0.000000e+00  
 -5.103800e-07 3.499567e-07 0.000000e+00  
 0.000000e+00 0.000000e+00 0.000000e+00  
 -3.450663e-06 8.017004e-07 0.000000e+00  
 3.057861e-06 9.401939e-07 0.000000e+00  
 8.451290e-07 4.879334e-07 0.000000e+00  
 1.624051e-06 7.754247e-07 0.000000e+00  
 1.120834e-06 6.412757e-07 0.000000e+00  
 1.756283e-06 7.719495e-07 0.000000e+00  
 2.325405e-06 8.941624e-07 0.000000e+00  
 2.584761e-06 8.604632e-07 0.000000e+00  
 8.253139e-07 4.373047e-07 0.000000e+00  
 0.000000e+00 0.000000e+00 0.000000e+00  
 -2.430201e-06 8.625897e-07 0.000000e+00  
 -2.584126e-06 8.632212e-07 0.000000e+00  
 -3.027558e-06 7.494966e-07 0.000000e+00  
 -2.064251e-06 7.171102e-07 0.000000e+00  
 -1.669272e-06 6.866940e-07 0.000000e+00  
 -1.159928e-06 4.780726e-07 0.000000e+00  
 -7.910990e-07 3.999624e-07 0.000000e+00  
 0.000000e+00 0.000000e+00 0.000000e+00  
 -3.053999e-06 7.143115e-07 0.000000e+00  
 -3.615000e-06 5.570471e-07 0.000000e+00  
 -4.011970e-06 5.591980e-07 0.000000e+00  
 3.552371e-06 7.614773e-07 0.000000e+00  
 2.729400e-06 7.616259e-07 0.000000e+00  
 3.057503e-06 7.062955e-07 0.000000e+00  
 1.771346e-06 6.809529e-07 0.000000e+00  
 1.136881e-06 4.846978e-07 0.000000e+00  
 2.174675e-06 6.640262e-07 0.000000e+00  
 1.086403e-06 4.050417e-07 0.000000e+00  
 0.000000e+00 0.000000e+00 0.000000e+00  
 -2.302373e-06 6.427963e-07 0.000000e+00  
 -2.670976e-06 6.369285e-07 0.000000e+00  
 -1.913445e-06 5.189381e-07 0.000000e+00  
 -1.260211e-06 4.339351e-07 0.000000e+00  
 -9.759242e-07 3.235446e-07 0.000000e+00  
 0.000000e+00 0.000000e+00 0.000000e+00  
 -3.084344e-06 4.796728e-07 0.000000e+00  
 -3.673693e-06 4.391725e-07 0.000000e+00  
 -4.036258e-06 3.036467e-07 0.000000e+00  
 -4.638792e-06 2.318724e-07 0.000000e+00  
 4.131656e-06 4.979594e-07 0.000000e+00  
 3.297637e-06 5.737374e-07 0.000000e+00  
 3.671114e-06 4.902018e-07 0.000000e+00  
 4.795742e-06 1.403382e-07 0.000000e+00  
 2.756587e-06 5.003205e-07 0.000000e+00  
 2.234354e-06 5.627583e-07 0.000000e+00  
 1.466240e-06 4.182838e-07 0.000000e+00  
 1.387190e-06 3.340506e-07 0.000000e+00  
 0.000000e+00 0.000000e+00 0.000000e+00  
 2.841779e-06 4.340004e-07 0.000000e+00  
 -2.907090e-06 4.102446e-07 0.000000e+00  
 -2.237116e-06 4.284525e-07 0.000000e+00  
 -1.698756e-06 3.101223e-07 0.000000e+00  
 -1.198613e-06 2.887750e-07 0.000000e+00  
 0.000000e+00 0.000000e+00 0.000000e+00  
 -3.324920e-06 2.540833e-07 0.000000e+00  
 -4.206485e-06 1.360361e-07 0.000000e+00  
 -4.528847e-06 -9.744930e-10 0.000000e+00  
 -5.205315e-06 -1.138977e-07 0.000000e+00  
 4.151722e-06 2.172115e-07 0.000000e+00  
 3.800319e-06 2.333081e-07 0.000000e+00  
 5.017806e-06 -2.051485e-07 0.000000e+00  
 5.535374e-06 -3.353151e-07 0.000000e+00  
 6.191324e-06 -8.044694e-07 0.000000e+00  
 1.748762e-06 3.073747e-07 0.000000e+00  
 2.414792e-06 3.300034e-07 0.000000e+00  
 1.354440e-06 1.791860e-07 0.000000e+00  
 0.000000e+00 0.000000e+00 0.000000e+00  
 3.130873e-06 1.473996e-07 0.000000e+00  
 3.755773e-06 8.839113e-08 0.000000e+00  
 -3.194208e-06 1.634894e-07 0.000000e+00  
 -1.982114e-06 2.331972e-07 0.000000e+00  
 -1.634683e-06 1.462155e-07 0.000000e+00  
 0.000000e+00 0.000000e+00 0.000000e+00  
 -3.532544e-06 3.848092e-08 0.000000e+00  
 -4.271249e-06 -1.248718e-07 0.000000e+00  
 -4.698112e-06 -1.346324e-07 0.000000e+00  
 -5.357347e-06 -4.252985e-07 0.000000e+00  
 -5.846106e-06 -5.616506e-07 0.000000e+00  
 -6.216757e-06 -8.490980e-07 0.000000e+00  
 4.580426e-06 -1.957407e-07 0.000000e+00  
 5.003252e-06 -2.836751e-07 0.000000e+00  
 5.922047e-06 -7.489102e-07 0.000000e+00  
 6.424408e-06 -9.655693e-07 0.000000e+00  
 7.313723e-06 -1.607830e-06 0.000000e+00  
 2.896404e-06 7.724850e-08 0.000000e+00  
 2.073069e-06 1.090236e-07 0.000000e+00  
 1.652431e-06 3.884085e-08 0.000000e+00  
 0.000000e+00 0.000000e+00 0.000000e+00  
 4.514778e-06 -3.169303e-07 0.000000e+00  
 3.832525e-06 -1.899107e-07 0.000000e+00  
 -3.128621e-06 -4.497879e-08 0.000000e+00  
 -2.221522e-06 4.301427e-08 0.000000e+00  
 -1.714286e-06 3.771242e-10 0.000000e+00  
 0.000000e+00 0.000000e+00 0.000000e+00  
 -3.895014e-06 -2.805356e-07 0.000000e+00  
 -4.976056e-06 -4.636282e-07 0.000000e+00  
 -4.890629e-06 -4.865347e-07 0.000000e+00  
 -5.734621e-06 -6.888640e-07 0.000000e+00  
 -6.033037e-06 -8.418879e-07 0.000000e+00  
 -6.580940e-06 -1.076211e-06 0.000000e+00  
 -7.353023e-06 -1.610863e-06 0.000000e+00  
 -6.596698e-06 -1.105256e-06 0.000000e+00  
 0.000000e+00 0.000000e+00 0.000000e+00  
 6.002772e-06 -8.747413e-07 0.000000e+00  
 5.480152e-06 -7.066625e-07 0.000000e+00  
 6.963640e-06 -1.370733e-06 0.000000e+00  
 7.456180e-06 -1.650710e-06 0.000000e+00  
 8.337536e-06 -2.236853e-06 0.000000e+00  
 3.555155e-06 -2.674081e-07 0.000000e+00  
 2.575272e-06 -1.371838e-07 0.000000e+00  
 2.066438e-06 -1.754731e-07 0.000000e+00  
 0.000000e+00 0.000000e+00 0.000000e+00  
 5.428758e-06 -8.357436e-07 0.000000e+00  
 4.661697e-06 -6.433834e-07 0.000000e+00  
 -2.788760e-06 -2.477026e-07 0.000000e+00  
 -3.726534e-06 -3.798154e-07 0.000000e+00  
 -2.540360e-06 -2.667266e-07 0.000000e+00  
 -5.113461e-06 -8.294103e-07 0.000000e+00  
 -5.692507e-06 -8.750850e-07 0.000000e+00  
 -6.618659e-06 -1.184999e-06 0.000000e+00  
 -6.514403e-06 -1.181015e-06 0.000000e+00  
 -7.513414e-06 -1.655659e-06 0.000000e+00  
 -8.215007e-06 -2.101416e-06 0.000000e+00  
 -3.143128e-06 -5.176743e-07 0.000000e+00  
 -2.381888e-06 -4.681816e-07 0.000000e+00  
 0.000000e+00 0.000000e+00 0.000000e+00  
 6.568613e-06 -1.342943e-06 0.000000e+00  
 7.133762e-06 -1.550907e-06 0.000000e+00  
 8.290363e-06 -2.174089e-06 0.000000e+00  
 8.916217e-06 -2.514531e-06 0.000000e+00  
 4.342789e-06 -7.377634e-07 0.000000e+00  
 3.114378e-06 -4.730426e-07 0.000000e+00  
 2.524301e-06 -4.787522e-07 0.000000e+00  
 0.000000e+00 0.000000e+00 0.000000e+00  
 5.546939e-06 -1.238649e-06 0.000000e+00  
 6.509310e-06 -1.536401e-06 0.000000e+00  
 -4.875398e-06 -9.849676e-07 0.000000e+00  
 -5.410302e-06 -1.023786e-06 0.000000e+00  
 -7.317335e-06 -1.657578e-06 0.000000e+00  
 -6.737984e-06 -1.545026e-06 0.000000e+00  
 -7.667721e-06 -1.823820e-06 0.000000e+00  
 -8.791837e-06 -2.550179e-06 0.000000e+00  
 -9.593429e-06 -3.003385e-06 0.000000e+00  
 -5.387592e-06 -1.341350e-06 0.000000e+00  
 -4.627497e-06 -1.257220e-06 0.000000e+00  
 -3.305481e-06 -8.400561e-07 0.000000e+00  
 -2.251601e-06 -6.645465e-07 0.000000e+00  
 0.000000e+00 0.000000e+00 0.000000e+00  
 7.735023e-06 -2.171149e-06 0.000000e+00  
 8.591828e-06 -2.512846e-06 0.000000e+00  
 9.815534e-06 -3.262978e-06 0.000000e+00  
 1.071957e-05 -3.741613e-06 0.000000e+00  
 5.198200e-06 -1.374988e-06 0.000000e+00  
 3.649674e-06 -9.157615e-07 0.000000e+00  
 3.032656e-06 -8.914977e-07 0.000000e+00  
 0.000000e+00 0.000000e+00 0.000000e+00  
 6.432417e-06 -2.000238e-06 0.000000e+00  
 7.778840e-06 -2.490012e-06 0.000000e+00  
 -7.568232e-06 -2.120990e-06 0.000000e+00  
 -7.396186e-06 -2.137504e-06 0.000000e+00  
 -8.842714e-06 -2.649887e-06 0.000000e+00  
 -7.487961e-06 -2.240428e-06 0.000000e+00  
 -1.002794e-05 -3.448781e-06 0.000000e+00  
 -1.101229e-05 -3.981368e-06 0.000000e+00  
 -5.682954e-06 -1.851456e-06 0.000000e+00  
 -6.917248e-06 -2.333613e-06 0.000000e+00  
 -4.990737e-06 -1.814612e-06 0.000000e+00  
 -3.475661e-06 -1.241700e-06 0.000000e+00  
 -2.593997e-06 -1.067648e-06 0.000000e+00  
 0.000000e+00 0.000000e+00 0.000000e+00  
 9.014825e-06 -3.223605e-06 0.000000e+00  
 1.020611e-05 -3.716369e-06 0.000000e+00  
 1.153056e-05 -4.601216e-06 0.000000e+00  
 1.264781e-05 -5.186797e-06 0.000000e+00  
 6.170778e-06 -2.221928e-06 0.000000e+00  
 4.181094e-06 -1.486616e-06 0.000000e+00  
 3.592682e-06 -1.452901e-06 0.000000e+00  
 0.000000e+00 0.000000e+00 0.000000e+00  
 7.508852e-06 -3.023374e-06 0.000000e+00  
 9.214935e-06 -3.632014e-06 0.000000e+00  
 7.556249e-06 -3.254907e-06 0.000000e+00  
 -8.092994e-06 -3.069815e-06 0.000000e+00  
 -9.384611e-06 -3.323571e-06 0.000000e+00  
 -1.012740e-05 -3.613793e-06 0.000000e+00  
 -9.378640e-06 -3.591997e-06 0.000000e+00  
 -1.160915e-05 -4.642011e-06 0.000000e+00  
 -1.267032e-05 -5.210199e-06 0.000000e+00  
 -7.911046e-06 -3.255905e-06 0.000000e+00  
 -6.233726e-06 -2.580441e-06 0.000000e+00  
 -3.889354e-06 -1.823155e-06 0.000000e+00  
 -5.964471e-06 -2.681661e-06 0.000000e+00  
 -3.718681e-06 -1.881685e-06 0.000000e+00  
 -2.277656e-06 -1.258416e-06 0.000000e+00  
 0.000000e+00 0.000000e+00 0.000000e+00  
 1.072186e-05 -4.633598e-06 0.000000e+00  
 1.195977e-05 -5.171389e-06 0.000000e+00  
 1.334321e-05 -6.162750e-06 0.000000e+00  
 1.469278e-05 -6.831585e-06 0.000000e+00  
 4.382352e-06 -1.995049e-06 0.000000e+00  
 6.113418e-06 -2.860237e-06 0.000000e+00  
 3.228572e-06 -1.691736e-06 0.000000e+00  
 0.000000e+00 0.000000e+00 0.000000e+00  
 1.084108e-05 -5.160044e-06 0.000000e+00  
 9.689579e-06 -4.680113e-06 0.000000e+00  
 9.342468e-06 -4.941561e-06 0.000000e+00  
 7.202424e-06 -3.875330e-06 0.000000e+00  
 0.000000e+00 0.000000e+00 0.000000e+00  
 -9.153294e-06 -4.136929e-06 0.000000e+00  
 -1.062823e-05 -4.808701e-06 0.000000e+00  
 -1.068437e-05 -4.488234e-06 0.000000e+00  
 -1.186143e-05 -5.032324e-06 0.000000e+00  
 -1.317637e-05 -5.993511e-06 0.000000e+00  
 -1.434962e-05 -6.549390e-06 0.000000e+00  
 -8.854303e-06 -4.375326e-06 0.000000e+00  
 -7.355243e-06 -3.680661e-06 0.000000e+00  
 -6.786505e-06 -3.765426e-06 0.000000e+00  
 -5.788751e-06 -3.272684e-06 0.000000e+00  
 -4.982397e-06 -3.159225e-06 0.000000e+00  
 -3.152562e-06 -2.041025e-06 0.000000e+00  
 -2.514990e-06 -1.750084e-06 0.000000e+00  
 0.000000e+00 0.000000e+00 0.000000e+00  
 0.000000e+00 0.000000e+00 0.000000e+00  
 0.000000e+00 0.000000e+00 0.000000e+00  
 1.244891e-05 -6.312518e-06 0.000000e+00  
 1.279811e-05 -6.954520e-06 0.000000e+00  
 1.384414e-05 -6.850066e-06 0.000000e+00  
 1.541478e-05 -8.049881e-06 0.000000e+00  
 1.687784e-05 -8.737503e-06 0.000000e+00  
 6.600188e-06 -3.860768e-06 0.000000e+00  
 4.058577e-06 -2.386185e-06 0.000000e+00  
 3.094157e-06 -2.082740e-06 0.000000e+00  
 3.469594e-06 -2.477989e-06 0.000000e+00  
 7.130065e-06 -4.448472e-06 0.000000e+00  
 1.090809e-05 -6.376649e-06 0.000000e+00  
 9.600548e-06 -6.085613e-06 0.000000e+00  
 2.110908e-06 -1.817421e-06 0.000000e+00  
 0.000000e+00 0.000000e+00 0.000000e+00  
 0.000000e+00 0.000000e+00 0.000000e+00  
 0.000000e+00 0.000000e+00 0.000000e+00  
 -1.014914e-05 -5.399722e-06 0.000000e+00  
 -1.197610e-05 -5.854859e-06 0.000000e+00  
 -1.123831e-05 -5.965512e-06 0.000000e+00  
 -1.252032e-05 -6.155096e-06 0.000000e+00  
 -1.343095e-05 -6.323158e-06 0.000000e+00  
 -1.531570e-05 -7.766026e-06 0.000000e+00  
 -1.636349e-05 -8.275253e-06 0.000000e+00  
 0.000000e+00 0.000000e+00 0.000000e+00  
 0.000000e+00 0.000000e+00 0.000000e+00  
 -9.538086e-06 -5.622776e-06 0.000000e+00  
 -8.359636e-06 -5.002933e-06 0.000000e+00  
 -7.637184e-06 -5.171080e-06 0.000000e+00  
 -6.066065e-06 -4.189746e-06 0.000000e+00  
 -5.225102e-06 -4.043976e-06 0.000000e+00  
 -3.209385e-06 -2.549375e-06 0.000000e+00  
 -2.443649e-06 -2.167519e-06 0.000000e+00  
 -2.811654e-06 -2.750337e-06 0.000000e+00  
 -1.488425e-06 -1.751711e-06 0.000000e+00  
 -1.983534e-06 -2.693855e-06 0.000000e+00  
 -9.807568e-07 -1.686730e-06 0.000000e+00  
 0.000000e+00 0.000000e+00 0.000000e+00  
 0.000000e+00 0.000000e+00 0.000000e+00  
 -2.884824e-08 -1.467646e-06 0.000000e+00  
 1.303447e-05 -8.359848e-06 0.000000e+00  
 1.476090e-05 -9.138393e-06 0.000000e+00  
 1.457824e-05 -8.359659e-06 0.000000e+00  
 1.593254e-05 -8.915764e-06 0.000000e+00  
 1.742827e-05 -1.012522e-05 0.000000e+00  
 1.919425e-05 -1.094081e-05 0.000000e+00  
 5.458202e-06 -4.037547e-06 0.000000e+00  
 6.393386e-06 -4.562793e-06 0.000000e+00  
 3.173303e-06 -3.018626e-06 0.000000e+00  
 5.156339e-06 -4.438223e-06 0.000000e+00  
 8.334510e-06 -6.310327e-06 0.000000e+00  
 9.949274e-06 -7.039151e-06 0.000000e+00  
 1.280190e-05 -8.883883e-06 0.000000e+00  
 1.124225e-05 -8.132750e-06 0.000000e+00  
 2.993814e-06 -3.106772e-06 0.000000e+00  
 1.833729e-06 -2.184506e-06 0.000000e+00  
 1.995131e-06 -2.863667e-06 0.000000e+00  
 1.038528e-06 -1.850356e-06 0.000000e+00  