# vtk DataFile Version 1.0 
PolyMesh 
ASCII 
 
DATASET POLYDATA 
 
POINTS 803 float 
2.500805e+00 1.640811e-02 0.000000e+00  
 2.494352e+00 8.188370e-02 0.000000e+00  
 2.479145e+00 1.464778e-01 0.000000e+00  
 2.433051e+00 7.276320e-02 0.000000e+00  
 2.498406e+00 -5.233755e-02 0.000000e+00  
 2.421886e+00 5.010302e-02 0.000000e+00  
 2.439979e+00 1.256079e-02 0.000000e+00  
 2.427866e+00 -1.374864e-02 0.000000e+00  
 2.444273e+00 -4.809420e-02 0.000000e+00  
 2.371674e+00 4.533318e-02 0.000000e+00  
 2.454940e+00 2.103340e-01 0.000000e+00  
 2.411680e+00 1.222557e-01 0.000000e+00  
 2.398631e+00 1.826534e-01 0.000000e+00  
 2.414589e+00 1.280771e-01 0.000000e+00  
 2.361178e+00 1.082244e-01 0.000000e+00  
 2.354290e+00 6.615254e-02 0.000000e+00  
 2.296067e+00 5.624382e-02 0.000000e+00  
 2.486805e+00 -1.200618e-01 0.000000e+00  
 2.422651e+00 -8.363212e-02 0.000000e+00  
 2.442484e+00 -1.127205e-01 0.000000e+00  
 2.397913e+00 -8.403069e-02 0.000000e+00  
 2.372572e+00 -1.945465e-02 0.000000e+00  
 2.359955e+00 -1.593670e-03 0.000000e+00  
 2.366609e+00 -5.056109e-02 0.000000e+00  
 2.301438e+00 -5.096266e-04 0.000000e+00  
 2.421534e+00 2.713402e-01 0.000000e+00  
 2.380586e+00 1.911793e-01 0.000000e+00  
 2.371490e+00 2.382358e-01 0.000000e+00  
 2.337659e+00 1.686470e-01 0.000000e+00  
 2.336816e+00 1.308132e-01 0.000000e+00  
 2.280804e+00 1.091198e-01 0.000000e+00  
 2.414380e+00 -1.595240e-01 0.000000e+00  
 2.463506e+00 -1.912401e-01 0.000000e+00  
 2.439401e+00 -2.402605e-01 0.000000e+00  
 2.399693e+00 -1.617439e-01 0.000000e+00  
 2.369051e+00 -1.260768e-01 0.000000e+00  
 2.344297e+00 -1.251617e-01 0.000000e+00  
 2.326377e+00 -7.132713e-02 0.000000e+00  
 2.295869e+00 -6.203197e-02 0.000000e+00  
 2.404324e+00 -2.959486e-01 0.000000e+00  
 2.380048e+00 3.271630e-01 0.000000e+00  
 2.339026e+00 2.531469e-01 0.000000e+00  
 2.331821e+00 2.910240e-01 0.000000e+00  
 2.302374e+00 2.239561e-01 0.000000e+00  
 2.306125e+00 1.899230e-01 0.000000e+00  
 2.256198e+00 1.585160e-01 0.000000e+00  
 2.374373e+00 -2.035370e-01 0.000000e+00  
 2.376803e+00 -2.124236e-01 0.000000e+00  
 2.353168e+00 -2.597886e-01 0.000000e+00  
 2.342785e+00 -2.631868e-01 0.000000e+00  
 2.324795e+00 -1.837412e-01 0.000000e+00  
 2.322114e+00 -1.442413e-01 0.000000e+00  
 2.273321e+00 -1.278287e-01 0.000000e+00  
 2.322068e+00 -3.101406e-01 0.000000e+00  
 2.361922e+00 -3.467332e-01 0.000000e+00  
 2.305501e+00 3.042713e-01 0.000000e+00  
 2.298624e+00 3.537886e-01 0.000000e+00  
 2.323868e+00 3.831787e-01 0.000000e+00  
 2.262523e+00 2.854670e-01 0.000000e+00  
 2.254959e+00 2.677762e-01 0.000000e+00  
 2.261145e+00 2.440408e-01 0.000000e+00  
 2.224356e+00 2.006829e-01 0.000000e+00  
 2.294220e+00 -3.154854e-01 0.000000e+00  
 2.274519e+00 -2.999903e-01 0.000000e+00  
 2.293238e+00 -2.345426e-01 0.000000e+00  
 2.294610e+00 -2.084710e-01 0.000000e+00  
 2.271738e+00 -2.525848e-01 0.000000e+00  
 2.245610e+00 -1.745652e-01 0.000000e+00  
 2.244324e+00 -3.660199e-01 0.000000e+00  
 2.281680e+00 -3.624577e-01 0.000000e+00  
 2.309822e+00 -3.943595e-01 0.000000e+00  
 2.233674e+00 3.342605e-01 0.000000e+00  
 2.243000e+00 3.560132e-01 0.000000e+00  
 2.232744e+00 3.818446e-01 0.000000e+00  
 2.259147e+00 4.292901e-01 0.000000e+00  
 2.195415e+00 4.614544e-01 0.000000e+00  
 2.189221e+00 3.174851e-01 0.000000e+00  
 2.190370e+00 2.731975e-01 0.000000e+00  
 2.171133e+00 2.494613e-01 0.000000e+00  
 2.224079e+00 -3.136313e-01 0.000000e+00  
 2.221260e+00 -3.398160e-01 0.000000e+00  
 2.209151e+00 -2.950777e-01 0.000000e+00  
 2.228248e+00 -2.453556e-01 0.000000e+00  
 2.209015e+00 -2.171026e-01 0.000000e+00  
 2.172480e+00 -3.624567e-01 0.000000e+00  
 2.186145e+00 -4.007338e-01 0.000000e+00  
 2.228032e+00 -4.095259e-01 0.000000e+00  
 2.244283e+00 -4.381262e-01 0.000000e+00  
 2.160399e+00 3.389233e-01 0.000000e+00  
 2.177026e+00 3.924158e-01 0.000000e+00  
 2.171980e+00 4.015823e-01 0.000000e+00  
 2.113610e+00 4.164501e-01 0.000000e+00  
 2.131732e+00 4.835090e-01 0.000000e+00  
 2.134381e+00 3.324393e-01 0.000000e+00  
 2.112691e+00 2.797912e-01 0.000000e+00  
 2.158561e+00 -3.555786e-01 0.000000e+00  
 2.149120e+00 -3.325787e-01 0.000000e+00  
 2.172001e+00 -2.909875e-01 0.000000e+00  
 2.152913e+00 -2.601562e-01 0.000000e+00  
 2.114727e+00 -3.911756e-01 0.000000e+00  
 2.123053e+00 -4.202257e-01 0.000000e+00  
 2.158833e+00 -4.345673e-01 0.000000e+00  
 2.171382e+00 -4.713917e-01 0.000000e+00  
 2.095445e+00 3.637370e-01 0.000000e+00  
 2.108865e+00 4.139110e-01 0.000000e+00  
 2.056350e+00 4.355339e-01 0.000000e+00  
 2.064624e+00 4.970450e-01 0.000000e+00  
 2.005519e+00 5.005519e-01 0.000000e+00  
 2.063934e+00 3.523202e-01 0.000000e+00  
 2.053851e+00 2.966847e-01 0.000000e+00  
 2.087140e+00 -3.770531e-01 0.000000e+00  
 2.081149e+00 -3.510642e-01 0.000000e+00  
 2.105045e+00 -3.188940e-01 0.000000e+00  
 2.095240e+00 -2.864039e-01 0.000000e+00  
 2.050438e+00 -4.061682e-01 0.000000e+00  
 2.050376e+00 -4.310376e-01 0.000000e+00  
 2.087996e+00 -4.543884e-01 0.000000e+00  
 2.094521e+00 -4.926922e-01 0.000000e+00  
 2.030425e+00 4.217347e-01 0.000000e+00  
 2.028147e+00 3.756666e-01 0.000000e+00  
 1.995780e+00 4.396594e-01 0.000000e+00  
 1.991530e+00 4.991530e-01 0.000000e+00  
 1.991707e+00 3.564961e-01 0.000000e+00  
 1.993378e+00 3.014518e-01 0.000000e+00  
 2.009129e+00 -3.742917e-01 0.000000e+00  
 2.035807e+00 -3.353500e-01 0.000000e+00  
 2.027175e+00 -3.009850e-01 0.000000e+00  
 1.993710e+00 -3.773415e-01 0.000000e+00  
 1.978939e+00 -4.295831e-01 0.000000e+00  
 2.015567e+00 -4.544503e-01 0.000000e+00  
 2.009698e+00 -5.009698e-01 0.000000e+00  
 1.956656e+00 3.742049e-01 0.000000e+00  
 1.952486e+00 4.179994e-01 0.000000e+00  
 1.931778e+00 4.306181e-01 0.000000e+00  
 1.924075e+00 4.924075e-01 0.000000e+00  
 1.899731e+00 4.899731e-01 0.000000e+00  
 1.922010e+00 3.501372e-01 0.000000e+00  
 1.929130e+00 2.926560e-01 0.000000e+00  
 1.884510e+00 2.776879e-01 0.000000e+00  
 1.966428e+00 -3.590023e-01 0.000000e+00  
 1.970613e+00 -2.999059e-01 0.000000e+00  
 1.927180e+00 -3.695914e-01 0.000000e+00  
 1.921709e+00 -4.198821e-01 0.000000e+00  
 1.947008e+00 -4.398225e-01 0.000000e+00  
 1.939261e+00 -4.939261e-01 0.000000e+00  
 1.900970e+00 -4.900970e-01 0.000000e+00  
 1.863627e+00 4.817312e-01 0.000000e+00  
 1.857504e+00 4.857504e-01 0.000000e+00  
 1.875782e+00 4.120927e-01 0.000000e+00  
 1.881040e+00 3.652096e-01 0.000000e+00  
 1.867389e+00 4.187040e-01 0.000000e+00  
 1.846756e+00 3.356296e-01 0.000000e+00  
 1.841219e+00 3.356799e-01 0.000000e+00  
 1.798462e+00 2.892637e-01 0.000000e+00  
 1.825737e+00 2.463600e-01 0.000000e+00  
 1.899384e+00 -3.491792e-01 0.000000e+00  
 1.919804e+00 -2.905321e-01 0.000000e+00  
 1.880892e+00 -3.518505e-01 0.000000e+00  
 1.876739e+00 -4.306112e-01 0.000000e+00  
 1.851243e+00 -4.047870e-01 0.000000e+00  
 1.867722e+00 -4.834780e-01 0.000000e+00  
 1.863932e+00 -4.863932e-01 0.000000e+00  
 1.808054e+00 4.137391e-01 0.000000e+00  
 1.799027e+00 4.799027e-01 0.000000e+00  
 1.794889e+00 3.988640e-01 0.000000e+00  
 1.796421e+00 3.742445e-01 0.000000e+00  
 1.753060e+00 3.346294e-01 0.000000e+00  
 1.772693e+00 2.938047e-01 0.000000e+00  
 1.736281e+00 2.542250e-01 0.000000e+00  
 1.778041e+00 2.046183e-01 0.000000e+00  
 1.843884e+00 -3.231786e-01 0.000000e+00  
 1.861766e+00 -2.683108e-01 0.000000e+00  
 1.825611e+00 -4.036870e-01 0.000000e+00  
 1.803682e+00 -3.342658e-01 0.000000e+00  
 1.802221e+00 -4.203274e-01 0.000000e+00  
 1.801418e+00 -4.801418e-01 0.000000e+00  
 1.742209e+00 4.157675e-01 0.000000e+00  
 1.735055e+00 4.735055e-01 0.000000e+00  
 1.746985e+00 1.633359e-01 0.000000e+00  
 1.715290e+00 1.010860e-01 0.000000e+00  
 1.724297e+00 3.425728e-01 0.000000e+00  
 1.708783e+00 3.885969e-01 0.000000e+00  
 1.687789e+00 3.093703e-01 0.000000e+00  
 1.715880e+00 2.542443e-01 0.000000e+00  
 1.689467e+00 2.276608e-01 0.000000e+00  
 1.696156e+00 1.855095e-01 0.000000e+00  
 1.698900e+00 2.866301e-02 0.000000e+00  
 1.821979e+00 -2.434423e-01 0.000000e+00  
 1.778198e+00 -2.037700e-01 0.000000e+00  
 1.700705e+00 -3.910173e-02 0.000000e+00  
 1.717508e+00 -1.056409e-01 0.000000e+00  
 1.746132e+00 -1.619338e-01 0.000000e+00  
 1.796111e+00 -3.315077e-01 0.000000e+00  
 1.780121e+00 -2.903988e-01 0.000000e+00  
 1.756332e+00 -3.574335e-01 0.000000e+00  
 1.759585e+00 -4.056411e-01 0.000000e+00  
 1.731624e+00 -4.235690e-01 0.000000e+00  
 1.726455e+00 -4.726455e-01 0.000000e+00  
 1.675862e+00 3.986826e-01 0.000000e+00  
 1.672663e+00 4.672663e-01 0.000000e+00  
 1.662392e+00 3.483107e-02 0.000000e+00  
 1.658036e+00 1.542573e-01 0.000000e+00  
 1.671243e+00 1.133827e-01 0.000000e+00  
 1.642903e+00 8.406090e-02 0.000000e+00  
 1.631270e+00 1.633784e-01 0.000000e+00  
 1.655752e+00 3.885845e-01 0.000000e+00  
 1.655811e+00 3.132971e-01 0.000000e+00  
 1.641996e+00 3.340595e-01 0.000000e+00  
 1.639762e+00 2.382037e-01 0.000000e+00  
 1.628436e+00 2.668286e-01 0.000000e+00  
 1.614574e+00 2.015926e-01 0.000000e+00  
 1.656801e+00 -4.663923e-02 0.000000e+00  
 1.627379e+00 -2.214916e-02 0.000000e+00  
 1.628968e+00 9.138894e-03 0.000000e+00  
 1.741496e+00 -2.766600e-01 0.000000e+00  
 1.731766e+00 -2.481045e-01 0.000000e+00  
 1.698982e+00 -2.323631e-01 0.000000e+00  
 1.694228e+00 -1.886651e-01 0.000000e+00  
 1.668005e+00 -1.718111e-01 0.000000e+00  
 1.641192e+00 -1.008250e-01 0.000000e+00  
 1.671315e+00 -1.212685e-01 0.000000e+00  
 1.703292e+00 -3.223992e-01 0.000000e+00  
 1.711733e+00 -3.409582e-01 0.000000e+00  
 1.685368e+00 -3.952554e-01 0.000000e+00  
 1.666109e+00 -4.007515e-01 0.000000e+00  
 1.654351e+00 -4.654351e-01 0.000000e+00  
 1.618693e+00 -1.059174e-01 0.000000e+00  
 1.609004e+00 4.087232e-01 0.000000e+00  
 1.604402e+00 4.604402e-01 0.000000e+00  
 1.605421e+00 8.736853e-02 0.000000e+00  
 1.583140e+00 3.891805e-02 0.000000e+00  
 1.579076e+00 1.221784e-01 0.000000e+00  
 1.571081e+00 2.058483e-01 0.000000e+00  
[...]
 POINT_DATA 803 
 VECTORS Displacement float 
 -4.881511e-08 1.119033e-06 0.000000e+00  
 -2.414772e-07 1.133129e-06 0.000000e+00  
 -4.562772e-07 1.167174e-06 0.000000e+00  
 -1.895272e-07 9.121446e-07 0.000000e+00  
 1.495279e-07 1.124989e-06 0.000000e+00  
 -1.224782e-07 8.418383e-07 0.000000e+00  
 -3.456193e-08 9.027033e-07 0.000000e+00  
 2.967041e-08 8.492435e-07 0.000000e+00  
 1.242457e-07 9.365974e-07 0.000000e+00  
 -7.656309e-08 5.573851e-07 0.000000e+00  
 -7.171455e-07 1.213075e-06 0.000000e+00  
 -3.256135e-07 8.981904e-07 0.000000e+00  
 -5.505776e-07 9.771246e-07 0.000000e+00  
 -3.459258e-07 9.212046e-07 0.000000e+00  
 -2.063097e-07 6.013526e-07 0.000000e+00  
 -9.761351e-08 4.738165e-07 0.000000e+00  
 0.000000e+00 0.000000e+00 0.000000e+00  
 3.625541e-07 1.148739e-06 0.000000e+00  
 2.117565e-07 8.765979e-07 0.000000e+00  
 3.179424e-07 9.993886e-07 0.000000e+00  
 1.906631e-07 7.537550e-07 0.000000e+00  
 3.042044e-08 5.438566e-07 0.000000e+00  
 1.633616e-09 4.592149e-07 0.000000e+00  
 8.073697e-08 5.245246e-07 0.000000e+00  
 0.000000e+00 0.000000e+00 0.000000e+00  
 -1.048807e-06 1.261640e-06 0.000000e+00  
 -5.667897e-07 9.334903e-07 0.000000e+00  
 -8.256337e-07 1.034936e-06 0.000000e+00  
 -3.689979e-07 6.409368e-07 0.000000e+00  
 -2.197511e-07 5.092357e-07 0.000000e+00  
 0.000000e+00 0.000000e+00 0.000000e+00  
 4.711084e-07 9.805214e-07 0.000000e+00  
 6.312843e-07 1.195316e-06 0.000000e+00  
 8.694254e-07 1.233910e-06 0.000000e+00  
 4.558921e-07 9.251453e-07 0.000000e+00  
 2.741272e-07 6.841246e-07 0.000000e+00  
 2.152643e-07 5.293129e-07 0.000000e+00  
 6.238951e-08 2.794252e-07 0.000000e+00  
 0.000000e+00 0.000000e+00 0.000000e+00  
 1.217800e-06 1.275005e-06 0.000000e+00  
 -1.467970e-06 1.292932e-06 0.000000e+00  
 -8.840241e-07 9.679970e-07 0.000000e+00  
 -1.186709e-06 1.070621e-06 0.000000e+00  
 -5.820888e-07 6.734489e-07 0.000000e+00  
 -3.746012e-07 5.418423e-07 0.000000e+00  
 0.000000e+00 0.000000e+00 0.000000e+00  
 6.244483e-07 9.410382e-07 0.000000e+00  
 6.742527e-07 9.786328e-07 0.000000e+00  
 9.512113e-07 1.038021e-06 0.000000e+00  
 9.651864e-07 1.018756e-06 0.000000e+00  
 4.048726e-07 6.234997e-07 0.000000e+00  
 2.217586e-07 4.568613e-07 0.000000e+00  
 0.000000e+00 0.000000e+00 0.000000e+00  
 1.357596e-06 1.094432e-06 0.000000e+00  
 1.651002e-06 1.288520e-06 0.000000e+00  
 -1.292322e-06 1.024037e-06 0.000000e+00  
 -1.827895e-06 1.143066e-06 0.000000e+00  
 -2.069354e-06 1.270745e-06 0.000000e+00  
 -1.016181e-06 7.901130e-07 0.000000e+00  
 -7.962956e-07 6.469448e-07 0.000000e+00  
 -5.787741e-07 5.577034e-07 0.000000e+00  
 0.000000e+00 0.000000e+00 0.000000e+00  
 1.400857e-06 1.023970e-06 0.000000e+00  
 1.212093e-06 8.887799e-07 0.000000e+00  
 6.300365e-07 6.791229e-07 0.000000e+00  
 4.413592e-07 5.617089e-07 0.000000e+00  
 7.012121e-07 6.516840e-07 0.000000e+00  
 0.000000e+00 0.000000e+00 0.000000e+00  
 2.055924e-06 1.004760e-06 0.000000e+00  
 1.946993e-06 1.114638e-06 0.000000e+00  
 2.223166e-06 1.248691e-06 0.000000e+00  
 -1.615408e-06 8.791453e-07 0.000000e+00  
 -1.926784e-06 9.793684e-07 0.000000e+00  
 -2.330027e-06 9.956283e-07 0.000000e+00  
 -2.841334e-06 1.136810e-06 0.000000e+00  
 -3.676460e-06 8.773254e-07 0.000000e+00  
 -1.289436e-06 6.278859e-07 0.000000e+00  
 -5.438697e-07 3.595123e-07 0.000000e+00  
 0.000000e+00 0.000000e+00 0.000000e+00  
 1.296251e-06 7.575705e-07 0.000000e+00  
 1.687581e-06 8.535598e-07 0.000000e+00  
 9.648465e-07 5.921390e-07 0.000000e+00  
 4.228898e-07 3.738990e-07 0.000000e+00  
 0.000000e+00 0.000000e+00 0.000000e+00  
 2.131100e-06 7.368050e-07 0.000000e+00  
 2.780149e-06 8.509113e-07 0.000000e+00  
 2.731048e-06 1.016315e-06 0.000000e+00  
 3.008741e-06 1.094312e-06 0.000000e+00  
 -1.679482e-06 6.180588e-07 0.000000e+00  
 -2.709468e-06 8.091339e-07 0.000000e+00  
 -2.894488e-06 7.879066e-07 0.000000e+00  
 -3.584093e-06 4.938128e-07 0.000000e+00  
 -4.595527e-06 4.760951e-07 0.000000e+00  
 -1.507440e-06 5.087584e-07 0.000000e+00  
 0.000000e+00 0.000000e+00 0.000000e+00  
 1.990591e-06 6.891380e-07 0.000000e+00  
 1.504037e-06 5.520881e-07 0.000000e+00  
 7.241429e-07 4.019103e-07 0.000000e+00  
 0.000000e+00 0.000000e+00 0.000000e+00  
 2.968945e-06 5.330340e-07 0.000000e+00  
 3.552663e-06 5.556822e-07 0.000000e+00  
 3.539372e-06 7.225925e-07 0.000000e+00  
 3.993402e-06 7.547941e-07 0.000000e+00  
 -2.402748e-06 4.275097e-07 0.000000e+00  
 -3.573466e-06 5.022383e-07 0.000000e+00  
 -4.635939e-06 3.905861e-08 0.000000e+00  
 -5.647785e-06 -1.399101e-07 0.000000e+00  
 -6.538697e-06 -7.748813e-07 0.000000e+00  
 -2.178231e-06 3.031980e-07 0.000000e+00  
 0.000000e+00 0.000000e+00 0.000000e+00  
 2.776125e-06 4.116037e-07 0.000000e+00  
 2.018739e-06 3.506139e-07 0.000000e+00  
 1.056276e-06 3.235301e-07 0.000000e+00  
 0.000000e+00 0.000000e+00 0.000000e+00  
 3.944148e-06 1.271620e-07 0.000000e+00  
 4.599184e-06 3.317690e-08 0.000000e+00  
 4.609792e-06 2.323394e-07 0.000000e+00  
 5.139529e-06 1.747751e-07 0.000000e+00  
 -4.676461e-06 -7.286097e-08 0.000000e+00  
 -3.263141e-06 7.889698e-08 0.000000e+00  
 -5.726089e-06 -5.372907e-07 0.000000e+00  
 -6.929350e-06 -9.724421e-07 0.000000e+00  
 -2.940506e-06 -6.428666e-08 0.000000e+00  
 0.000000e+00 0.000000e+00 0.000000e+00  
 3.413458e-06 -3.480604e-08 0.000000e+00  
 1.609598e-06 1.825105e-07 0.000000e+00  
 0.000000e+00 0.000000e+00 0.000000e+00  
 3.798182e-06 -1.774260e-07 0.000000e+00  
 5.795727e-06 -6.691303e-07 0.000000e+00  
 5.708349e-06 -4.340261e-07 0.000000e+00  
 6.560268e-06 -7.510082e-07 0.000000e+00  
 -4.304019e-06 -4.770461e-07 0.000000e+00  
 -6.063336e-06 -9.017978e-07 0.000000e+00  
 -6.969460e-06 -1.341345e-06 0.000000e+00  
 -8.477976e-06 -2.023617e-06 0.000000e+00  
 -8.886228e-06 -2.473846e-06 0.000000e+00  
 -3.909501e-06 -6.218583e-07 0.000000e+00  
 0.000000e+00 0.000000e+00 0.000000e+00  
 0.000000e+00 0.000000e+00 0.000000e+00  
 3.445189e-06 -2.716393e-07 0.000000e+00  
 0.000000e+00 0.000000e+00 0.000000e+00  
 4.743823e-06 -7.747841e-07 0.000000e+00  
 6.893500e-06 -1.342106e-06 0.000000e+00  
 6.836437e-06 -1.183614e-06 0.000000e+00  
 8.030457e-06 -1.743313e-06 0.000000e+00  
 8.902410e-06 -2.411232e-06 0.000000e+00  
 -1.037852e-05 -3.138990e-06 0.000000e+00  
 -1.072876e-05 -3.360033e-06 0.000000e+00  
 -8.036123e-06 -2.097874e-06 0.000000e+00  
 -5.845154e-06 -1.441554e-06 0.000000e+00  
 -8.586149e-06 -2.330218e-06 0.000000e+00  
 -5.440320e-06 -1.696207e-06 0.000000e+00  
 -5.550953e-06 -1.803789e-06 0.000000e+00  
 -4.470594e-06 -1.998268e-06 0.000000e+00  
 0.000000e+00 0.000000e+00 0.000000e+00  
 4.474037e-06 -9.157505e-07 0.000000e+00  
 0.000000e+00 0.000000e+00 0.000000e+00  
 5.119085e-06 -1.255173e-06 0.000000e+00  
 8.621592e-06 -2.267393e-06 0.000000e+00  
 8.573585e-06 -2.555138e-06 0.000000e+00  
 1.026003e-05 -3.012527e-06 0.000000e+00  
 1.041227e-05 -3.164856e-06 0.000000e+00  
 -1.061474e-05 -3.876603e-06 0.000000e+00  
 -1.297893e-05 -5.009030e-06 0.000000e+00  
 -1.052752e-05 -4.042038e-06 0.000000e+00  
 -9.380975e-06 -3.646942e-06 0.000000e+00  
 -9.173393e-06 -4.462694e-06 0.000000e+00  
 -5.931211e-06 -2.926938e-06 0.000000e+00  
 -5.368095e-06 -3.390900e-06 0.000000e+00  
 0.000000e+00 0.000000e+00 0.000000e+00  
 4.724383e-06 -1.497303e-06 0.000000e+00  
 0.000000e+00 0.000000e+00 0.000000e+00  
 9.501625e-06 -3.215465e-06 0.000000e+00  
 7.004262e-06 -2.750126e-06 0.000000e+00  
 1.109252e-05 -4.126568e-06 0.000000e+00  
 1.287532e-05 -4.933104e-06 0.000000e+00  
 -1.353832e-05 -6.188549e-06 0.000000e+00  
 -1.587361e-05 -7.305561e-06 0.000000e+00  
 0.000000e+00 0.000000e+00 0.000000e+00  
 0.000000e+00 0.000000e+00 0.000000e+00  
 -1.090929e-05 -5.719217e-06 0.000000e+00  
 -1.393308e-05 -7.149306e-06 0.000000e+00  
 -1.080121e-05 -6.733145e-06 0.000000e+00  
 -6.350959e-06 -4.248535e-06 0.000000e+00  
 -6.138224e-06 -4.888814e-06 0.000000e+00  
 -3.673782e-06 -3.482667e-06 0.000000e+00  
 0.000000e+00 0.000000e+00 0.000000e+00  
 0.000000e+00 0.000000e+00 0.000000e+00  
 0.000000e+00 0.000000e+00 0.000000e+00  
 0.000000e+00 0.000000e+00 0.000000e+00  
 0.000000e+00 0.000000e+00 0.000000e+00  
 0.000000e+00 0.000000e+00 0.000000e+00  
 7.124263e-06 -2.959529e-06 0.000000e+00  
 5.364870e-06 -2.645020e-06 0.000000e+00  
 1.019481e-05 -4.745104e-06 0.000000e+00  
 1.232388e-05 -5.408724e-06 0.000000e+00  
 1.433499e-05 -6.751088e-06 0.000000e+00  
 1.626874e-05 -7.668863e-06 0.000000e+00  
 -1.603031e-05 -8.825498e-06 0.000000e+00  
 -1.902878e-05 -1.007629e-05 0.000000e+00  
 -5.111769e-07 -2.711235e-06 0.000000e+00  
 -4.041805e-06 -4.900178e-06 0.000000e+00  
 -2.036036e-06 -3.212211e-06 0.000000e+00  
 -2.042838e-06 -4.610488e-06 0.000000e+00  
 -5.539368e-06 -6.800163e-06 0.000000e+00  
 -1.651823e-05 -9.686275e-06 0.000000e+00  
 -1.251171e-05 -8.377375e-06 0.000000e+00  
 -1.432302e-05 -9.496584e-06 0.000000e+00  
 -9.001693e-06 -7.821198e-06 0.000000e+00  
 -1.112029e-05 -9.048642e-06 0.000000e+00  
 -8.080320e-06 -8.639517e-06 0.000000e+00  
 8.243063e-07 -3.213037e-06 0.000000e+00  
 6.035050e-07 -5.160158e-06 0.000000e+00  
 -2.082171e-07 -5.012880e-06 0.000000e+00  
 6.392887e-06 -3.703523e-06 0.000000e+00  
 5.218984e-06 -3.432350e-06 0.000000e+00  
 5.951489e-06 -4.530503e-06 0.000000e+00  
 3.923351e-06 -3.688501e-06 0.000000e+00  
 4.363567e-06 -4.741413e-06 0.000000e+00  
 2.593365e-06 -4.978032e-06 0.000000e+00  
 2.275024e-06 -3.395442e-06 0.000000e+00  
 1.078992e-05 -6.276695e-06 0.000000e+00  
 1.138499e-05 -6.243128e-06 0.000000e+00  
 1.535171e-05 -8.355178e-06 0.000000e+00  
 1.658786e-05 -9.366179e-06 0.000000e+00  
 1.997287e-05 -1.100012e-05 0.000000e+00  
 3.469802e-06 -6.665683e-06 0.000000e+00  
 -1.995882e-05 -1.262467e-05 0.000000e+00  
 -2.271006e-05 -1.374124e-05 0.000000e+00  
 -3.050471e-06 -7.363986e-06 0.000000e+00  
 -1.531139e-06 -8.618366e-06 0.000000e+00  
 -5.273178e-06 -9.714238e-06 0.000000e+00  
 -1.000981e-05 -1.162623e-05 0.000000e+00  
 -8.788942e-06 -1.268608e-05 0.000000e+00  
 -1.727541e-05 -1.279584e-05 0.000000e+00  
 -2.028535e-05 -1.420356e-05 0.000000e+00  
 -1.660327e-05 -1.374369e-05 0.000000e+00  
 -1.406584e-05 -1.248669e-05 0.000000e+00  
 -1.292818e-05 -1.349169e-05 0.000000e+00  
 1.707590e-06 -8.573639e-06 0.000000e+00  
 3.125591e-06 -9.005612e-06 0.000000e+00  
 -1.456502e-06 -1.009761e-05 0.000000e+00  
 8.377639e-07 -1.108768e-05 0.000000e+00  
 9.320380e-06 -7.278719e-06 0.000000e+00  
 1.155531e-05 -7.461997e-06 0.000000e+00  
 7.017412e-06 -7.830923e-06 0.000000e+00  
 9.738682e-06 -8.058971e-06 0.000000e+00  
 7.789918e-06 -8.364667e-06 0.000000e+00  
 5.952826e-06 -8.754986e-06 0.000000e+00  
 1.496015e-05 -1.013231e-05 0.000000e+00  
 1.725646e-05 -1.077469e-05 0.000000e+00  
 2.023908e-05 -1.333397e-05 0.000000e+00  
 2.339455e-05 -1.449559e-05 0.000000e+00  
 7.325171e-06 -1.198091e-05 0.000000e+00  
 5.145657e-06 -1.260627e-05 0.000000e+00  
 -2.289661e-05 -1.679706e-05 0.000000e+00  
 -2.662548e-05 -1.820379e-05 0.000000e+00  
 -2.960940e-06 -1.317013e-05 0.000000e+00  
 -5.003912e-06 -1.337043e-05 0.000000e+00  
 -9.951067e-06 -1.581538e-05 0.000000e+00  
 -7.220553e-06 -1.642350e-05 0.000000e+00  
 -1.486213e-05 -1.689853e-05 0.000000e+00  
 -1.187589e-05 -1.758864e-05 0.000000e+00  
 -1.978075e-05 -1.765379e-05 0.000000e+00  
 -2.323739e-05 -1.845136e-05 0.000000e+00  
 -1.974365e-05 -1.832306e-05 0.000000e+00  
 -1.656404e-05 -1.825090e-05 0.000000e+00  
 -2.148503e-06 -1.647528e-05 0.000000e+00  
 5.043037e-06 -1.453978e-05 0.000000e+00  
 1.513937e-06 -1.388674e-05 0.000000e+00  
 8.629887e-07 -1.587331e-05 0.000000e+00  
 1.548105e-05 -1.200352e-05 0.000000e+00  
 1.327433e-05 -1.124028e-05 0.000000e+00  
 9.656884e-06 -1.397120e-05 0.000000e+00  
 1.306000e-05 -1.337548e-05 0.000000e+00  
 1.116613e-05 -1.247467e-05 0.000000e+00  
 1.809669e-05 -1.438100e-05 0.000000e+00  
 2.102459e-05 -1.533567e-05 0.000000e+00  
 2.359809e-05 -1.771527e-05 0.000000e+00  
 2.735276e-05 -1.913080e-05 0.000000e+00  
 5.823789e-06 -1.619986e-05 0.000000e+00  
 1.070796e-05 -1.634244e-05 0.000000e+00  
 8.872879e-06 -1.814576e-05 0.000000e+00  
 -2.670911e-05 -2.210614e-05 0.000000e+00  
 -3.063755e-05 -2.349734e-05 0.000000e+00  
 -2.991342e-06 -1.862616e-05 0.000000e+00  
 -2.081479e-06 -2.196204e-05 0.000000e+00  
 -7.323475e-06 -2.002647e-05 0.000000e+00  
 -1.311139e-05 -2.114443e-05 0.000000e+00  
 -1.142674e-05 -2.258304e-05 0.000000e+00  
 -1.687075e-05 -2.365509e-05 0.000000e+00  
 -1.840129e-05 -2.257741e-05 0.000000e+00  
 -2.360576e-05 -2.334343e-05 0.000000e+00  
 -2.658592e-05 -2.446855e-05 0.000000e+00  
 -2.247054e-05 -2.492198e-05 0.000000e+00  
 2.487731e-06 -2.022701e-05 0.000000e+00  
 1.095851e-06 -2.256550e-05 0.000000e+00  
 4.580292e-06 -2.035217e-05 0.000000e+00  
 1.544892e-05 -1.598986e-05 0.000000e+00  
 1.865933e-05 -1.681170e-05 0.000000e+00  
 1.355904e-05 -1.865519e-05 0.000000e+00  
 1.574621e-05 -1.829442e-05 0.000000e+00  
 2.138164e-05 -1.954044e-05 0.000000e+00  
 2.448147e-05 -2.063440e-05 0.000000e+00  
 2.657970e-05 -2.267724e-05 0.000000e+00  
 3.109280e-05 -2.417005e-05 0.000000e+00  
 7.103959e-06 -2.364561e-05 0.000000e+00  
 1.023272e-05 -2.215504e-05 0.000000e+00  
 1.245041e-05 -2.381755e-05 0.000000e+00  
 1.469769e-05 -2.273071e-05 0.000000e+00  
 -2.993972e-05 -2.823672e-05 0.000000e+00  
 -3.453391e-05 -2.945426e-05 0.000000e+00  
 1.897783e-06 -2.657080e-05 0.000000e+00  
 -2.451634e-06 -2.970063e-05 0.000000e+00  
 -4.355188e-06 -2.576759e-05 0.000000e+00  
 -6.688747e-06 -2.566215e-05 0.000000e+00  
 -9.239742e-06 -2.829426e-05 0.000000e+00  
 -1.248738e-05 -2.678775e-05 0.000000e+00  
 -1.812465e-05 -2.761888e-05 0.000000e+00  
 -1.534951e-05 -2.902717e-05 0.000000e+00  
 -2.444701e-05 -2.887024e-05 0.000000e+00  
 -2.147180e-05 -3.015520e-05 0.000000e+00  
 -2.693632e-05 -3.069901e-05 0.000000e+00  
 -3.006518e-05 -3.063643e-05 0.000000e+00  
 4.124781e-06 -2.828177e-05 0.000000e+00  
 7.140124e-06 -2.644683e-05 0.000000e+00  
 2.132569e-05 -2.297626e-05 0.000000e+00  
 1.844926e-05 -2.535490e-05 0.000000e+00  
 2.018087e-05 -2.269078e-05 0.000000e+00  
 2.438149e-05 -2.581409e-05 0.000000e+00  
 2.780548e-05 -2.624721e-05 0.000000e+00  
 3.031769e-05 -2.857640e-05 0.000000e+00  
 3.461280e-05 -2.960059e-05 0.000000e+00  
 1.364012e-05 -2.815539e-05 0.000000e+00  
 1.078617e-05 -3.004679e-05 0.000000e+00  
 1.966926e-05 -2.807705e-05 0.000000e+00  
 1.698729e-05 -3.050528e-05 0.000000e+00  
 -3.495307e-05 -3.587935e-05 0.000000e+00  
 -3.876831e-05 -3.691667e-05 0.000000e+00  
 4.450145e-06 -3.261698e-05 0.000000e+00  
 -2.653993e-06 -3.100984e-05 0.000000e+00  
 2.857943e-07 -3.494772e-05 0.000000e+00  
 -6.805845e-06 -3.411796e-05 0.000000e+00  
 -9.589261e-06 -3.201723e-05 0.000000e+00  
 -1.379724e-05 -3.524359e-05 0.000000e+00  
 -1.635497e-05 -3.329258e-05 0.000000e+00  
 -2.067526e-05 -3.615161e-05 0.000000e+00  
 -2.285831e-05 -3.462987e-05 0.000000e+00  
 -2.790430e-05 -3.773043e-05 0.000000e+00  
 -2.923952e-05 -3.679948e-05 0.000000e+00  
 -3.372567e-05 -3.873490e-05 0.000000e+00  
 1.103239e-05 -3.311543e-05 0.000000e+00  
 7.395277e-06 -3.539434e-05 0.000000e+00  
 7.593179e-06 -3.880456e-05 0.000000e+00  
 2.375088e-05 -3.107219e-05 0.000000e+00  
 2.560839e-05 -3.024107e-05 0.000000e+00  
 3.105416e-05 -3.375967e-05 0.000000e+00  
 3.178647e-05 -3.329275e-05 0.000000e+00  
 3.853992e-05 -3.659499e-05 0.000000e+00  
 1.492402e-05 -3.688556e-05 0.000000e+00  
 1.858922e-05 -3.488255e-05 0.000000e+00  
 2.087904e-05 -3.649183e-05 0.000000e+00  
 2.472773e-05 -3.485921e-05 0.000000e+00  
 4.089378e-05 -4.110732e-05 0.000000e+00  
 -3.722207e-05 -4.382214e-05 0.000000e+00  
 -4.302388e-05 -4.575449e-05 0.000000e+00  
 3.025829e-06 -4.160950e-05 0.000000e+00  
 -2.961305e-08 -3.837193e-05 0.000000e+00  
 -7.042438e-06 -3.836932e-05 0.000000e+00  
 -4.164782e-06 -4.065026e-05 0.000000e+00  
 -1.432530e-05 -3.922104e-05 0.000000e+00  
 -1.158783e-05 -4.157630e-05 0.000000e+00  
 -1.930633e-05 -4.263038e-05 0.000000e+00  
 -2.177651e-05 -4.117606e-05 0.000000e+00  
 -2.604934e-05 -4.395357e-05 0.000000e+00  
 -2.896538e-05 -4.220203e-05 0.000000e+00  
 -1.193818e-05 -4.515847e-05 0.000000e+00  
 -3.542983e-05 -4.724249e-05 0.000000e+00  
 3.126096e-06 -4.521201e-05 0.000000e+00  
 1.520624e-05 -4.070862e-05 0.000000e+00  
 1.091503e-05 -4.238289e-05 0.000000e+00  
 1.078468e-05 -4.619930e-05 0.000000e+00  
 6.346259e-06 -4.822916e-05 0.000000e+00  
 1.838474e-05 -4.399295e-05 0.000000e+00  
 3.237471e-05 -3.841349e-05 0.000000e+00  
 2.882860e-05 -3.878298e-05 0.000000e+00  
 3.503803e-05 -4.082929e-05 0.000000e+00  
 2.284656e-05 -4.385102e-05 0.000000e+00  
 2.339767e-05 -4.229444e-05 0.000000e+00  
 2.896681e-05 -4.280497e-05 0.000000e+00  
 3.744781e-05 -4.694730e-05 0.000000e+00  
 4.435557e-05 -4.891200e-05 0.000000e+00  
 -4.134770e-05 -5.364524e-05 0.000000e+00  
 -4.669451e-05 -5.456554e-05 0.000000e+00  
 -1.775247e-06 -4.858753e-05 0.000000e+00  
 -4.564763e-06 -4.647171e-05 0.000000e+00  
 -8.632905e-06 -4.836278e-05 0.000000e+00  
 -1.963527e-05 -4.827828e-05 0.000000e+00  
 -1.735747e-05 -4.942726e-05 0.000000e+00  
 -2.484436e-05 -5.165768e-05 0.000000e+00  
 -2.784213e-05 -4.990664e-05 0.000000e+00  
 -3.197804e-05 -5.226280e-05 0.000000e+00  
 -1.025517e-05 -5.420540e-05 0.000000e+00  
 -1.670763e-05 -5.418711e-05 0.000000e+00  
 -3.468617e-05 -5.712166e-05 0.000000e+00  
 -4.028520e-05 -5.889486e-05 0.000000e+00  
 -1.299868e-06 -5.293427e-05 0.000000e+00  
 4.183662e-06 -5.550505e-05 0.000000e+00  
 6.427267e-06 -5.354332e-05 0.000000e+00  
 1.793807e-05 -5.053665e-05 0.000000e+00  
 1.217752e-05 -5.623358e-05 0.000000e+00  
 1.456692e-05 -5.054523e-05 0.000000e+00  
 2.004273e-05 -5.261586e-05 0.000000e+00  
 2.641198e-05 -5.026299e-05 0.000000e+00  
 2.560195e-05 -5.252683e-05 0.000000e+00  
 3.210021e-05 -4.680550e-05 0.000000e+00  
 3.693949e-05 -4.772153e-05 0.000000e+00  
 3.129432e-05 -5.061904e-05 0.000000e+00  
 4.070225e-05 -5.491022e-05 0.000000e+00  
 4.738859e-05 -5.651541e-05 0.000000e+00  
 -4.384052e-05 -6.360386e-05 0.000000e+00  
 -5.052456e-05 -6.522894e-05 0.000000e+00  
 -9.107146e-06 -5.661500e-05 0.000000e+00  
 -4.701600e-06 -5.725821e-05 0.000000e+00  
 -2.590024e-05 -5.896499e-05 0.000000e+00  
 -1.917384e-05 -5.828525e-05 0.000000e+00  
 -3.296864e-05 -6.097231e-05 0.000000e+00  
 -2.648797e-05 -5.961069e-05 0.000000e+00  
 -1.230327e-05 -6.279275e-05 0.000000e+00  
 -1.770899e-05 -6.303212e-05 0.000000e+00  
 -3.678277e-05 -6.749472e-05 0.000000e+00  
 -4.240280e-05 -6.836681e-05 0.000000e+00  
 -2.850119e-06 -6.236181e-05 0.000000e+00  
 4.052876e-06 -6.265804e-05 0.000000e+00  
 1.338278e-05 -5.937376e-05 0.000000e+00  
 1.078044e-05 -6.368909e-05 0.000000e+00  
 1.885118e-05 -6.144159e-05 0.000000e+00  
 2.088641e-05 -5.985548e-05 0.000000e+00  
 2.898690e-05 -5.891804e-05 0.000000e+00  
 2.660163e-05 -6.215514e-05 0.000000e+00  
 3.332566e-05 -6.007859e-05 0.000000e+00  
 3.524686e-05 -5.613567e-05 0.000000e+00  
 3.952491e-05 -5.707342e-05 0.000000e+00  
 4.353678e-05 -6.356225e-05 0.000000e+00  
 5.049023e-05 -6.523581e-05 0.000000e+00  
 -4.702184e-05 -7.470406e-05 0.000000e+00  
 -5.395322e-05 -7.630707e-05 0.000000e+00  
 -3.535007e-05 -7.079555e-05 0.000000e+00  
 -9.931281e-06 -6.813780e-05 0.000000e+00  
 -5.483932e-06 -6.754503e-05 0.000000e+00  
 -2.712305e-05 -6.877746e-05 0.000000e+00  
 -2.091044e-05 -6.867489e-05 0.000000e+00  
 -2.899477e-05 -7.061830e-05 0.000000e+00  
 -1.226665e-05 -7.210727e-05 0.000000e+00  
 -1.946504e-05 -7.236144e-05 0.000000e+00  
 -4.000626e-05 -7.897352e-05 0.000000e+00  
 -4.440438e-05 -8.012714e-05 0.000000e+00  
 -1.665217e-06 -7.301547e-05 0.000000e+00  
 3.648219e-06 -7.025493e-05 0.000000e+00  
 8.288105e-06 -7.396619e-05 0.000000e+00  
 1.293484e-05 -6.999939e-05 0.000000e+00  
 2.019682e-05 -6.893654e-05 0.000000e+00  