# vtk DataFile Version 1.0 
PolyMesh 
ASCII 
 
DATASET POLYDATA 
 
POINTS 803 float 
2.500805e+00 1.640811e-02 0.000000e+00  
 2.494352e+00 8.188370e-02 0.000000e+00  
 2.479145e+00 1.464778e-01 0.000000e+00  
 2.433051e+00 7.276320e-02 0.000000e+00  
 2.498406e+00 -5.233755e-02 0.000000e+00  
 2.421886e+00 5.010302e-02 0.000000e+00  
 2.439979e+00 1.256079e-02 0.000000e+00  
 2.427866e+00 -1.374864e-02 0.000000e+00  
 2.444273e+00 -4.809420e-02 0.000000e+00  
 2.371674e+00 4.533318e-02 0.000000e+00  
 2.454940e+00 2.103340e-01 0.000000e+00  
 2.411680e+00 1.222557e-01 0.000000e+00  
 2.398631e+00 1.826534e-01 0.000000e+00  
 2.414589e+00 1.280771e-01 0.000000e+00  
 2.361178e+00 1.082244e-01 0.000000e+00  
 2.354290e+00 6.615254e-02 0.000000e+00  
 2.296067e+00 5.624382e-02 0.000000e+00  
 2.486805e+00 -1.200618e-01 0.000000e+00  
 2.422651e+00 -8.363212e-02 0.000000e+00  
 2.442484e+00 -1.127205e-01 0.000000e+00  
 2.397913e+00 -8.403069e-02 0.000000e+00  
 2.372572e+00 -1.945465e-02 0.000000e+00  
 2.359955e+00 -1.593670e-03 0.000000e+00  
 2.366609e+00 -5.056109e-02 0.000000e+00  
 2.301438e+00 -5.096266e-04 0.000000e+00  
 2.421534e+00 2.713402e-01 0.000000e+00  
 2.380586e+00 1.911793e-01 0.000000e+00  
 2.371490e+00 2.382358e-01 0.000000e+00  
 2.337659e+00 1.686470e-01 0.000000e+00  
 2.336816e+00 1.308132e-01 0.000000e+00  
 2.280804e+00 1.091198e-01 0.000000e+00  
 2.414380e+00 -1.595240e-01 0.000000e+00  
 2.463506e+00 -1.912401e-01 0.000000e+00  
 2.439401e+00 -2.402605e-01 0.000000e+00  
 2.399693e+00 -1.617439e-01 0.000000e+00  
 2.369051e+00 -1.260768e-01 0.000000e+00  
 2.344297e+00 -1.251617e-01 0.000000e+00  
 2.326377e+00 -7.132713e-02 0.000000e+00  
 2.295869e+00 -6.203197e-02 0.000000e+00  
 2.404324e+00 -2.959486e-01 0.000000e+00  
 2.380048e+00 3.271630e-01 0.000000e+00  
 2.339026e+00 2.531469e-01 0.000000e+00  
 2.331821e+00 2.910240e-01 0.000000e+00  
 2.302374e+00 2.239561e-01 0.000000e+00  
 2.306125e+00 1.899230e-01 0.000000e+00  
 2.256198e+00 1.585160e-01 0.000000e+00  
 2.374373e+00 -2.035370e-01 0.000000e+00  
 2.376803e+00 -2.124236e-01 0.000000e+00  
 2.353168e+00 -2.597886e-01 0.000000e+00  
 2.342785e+00 -2.631868e-01 0.000000e+00  
 2.324795e+00 -1.837412e-01 0.000000e+00  
 2.322114e+00 -1.442413e-01 0.000000e+00  
 2.273321e+00 -1.278287e-01 0.000000e+00  
 2.322068e+00 -3.101406e-01 0.000000e+00  
 2.361922e+00 -3.467332e-01 0.000000e+00  
 2.305501e+00 3.042713e-01 0.000000e+00  
 2.298624e+00 3.537886e-01 0.000000e+00  
 2.323868e+00 3.831787e-01 0.000000e+00  
 2.262523e+00 2.854670e-01 0.000000e+00  
 2.254959e+00 2.677762e-01 0.000000e+00  
 2.261145e+00 2.440408e-01 0.000000e+00  
 2.224356e+00 2.006829e-01 0.000000e+00  
 2.294220e+00 -3.154854e-01 0.000000e+00  
 2.274519e+00 -2.999903e-01 0.000000e+00  
 2.293238e+00 -2.345426e-01 0.000000e+00  
 2.294610e+00 -2.084710e-01 0.000000e+00  
 2.271738e+00 -2.525848e-01 0.000000e+00  
 2.245610e+00 -1.745652e-01 0.000000e+00  
 2.244324e+00 -3.660199e-01 0.000000e+00  
 2.281680e+00 -3.624577e-01 0.000000e+00  
 2.309822e+00 -3.943595e-01 0.000000e+00  
 2.233674e+00 3.342605e-01 0.000000e+00  
 2.243000e+00 3.560132e-01 0.000000e+00  
 2.232744e+00 3.818446e-01 0.000000e+00  
 2.259147e+00 4.292901e-01 0.000000e+00  
 2.195415e+00 4.614544e-01 0.000000e+00  
 2.189221e+00 3.174851e-01 0.000000e+00  
 2.190370e+00 2.731975e-01 0.000000e+00  
 2.171133e+00 2.494613e-01 0.000000e+00  
 2.224079e+00 -3.136313e-01 0.000000e+00  
 2.221260e+00 -3.398160e-01 0.000000e+00  
 2.209151e+00 -2.950777e-01 0.000000e+00  
 2.228248e+00 -2.453556e-01 0.000000e+00  
 2.209015e+00 -2.171026e-01 0.000000e+00  
 2.172480e+00 -3.624567e-01 0.000000e+00  
 2.186145e+00 -4.007338e-01 0.000000e+00  
 2.228032e+00 -4.095259e-01 0.000000e+00  
 2.244283e+00 -4.381262e-01 0.000000e+00  
 2.160399e+00 3.389233e-01 0.000000e+00  
 2.177026e+00 3.924158e-01 0.000000e+00  
 2.171980e+00 4.015823e-01 0.000000e+00  
 2.113610e+00 4.164501e-01 0.000000e+00  
 2.131732e+00 4.835090e-01 0.000000e+00  
 2.134381e+00 3.324393e-01 0.000000e+00  
 2.112691e+00 2.797912e-01 0.000000e+00  
 2.158561e+00 -3.555786e-01 0.000000e+00  
 2.149120e+00 -3.325787e-01 0.000000e+00  
 2.172001e+00 -2.909875e-01 0.000000e+00  
 2.152913e+00 -2.601562e-01 0.000000e+00  
 2.114727e+00 -3.911756e-01 0.000000e+00  
 2.123053e+00 -4.202257e-01 0.000000e+00  
 2.158833e+00 -4.345673e-01 0.000000e+00  
 2.171382e+00 -4.713917e-01 0.000000e+00  
 2.095445e+00 3.637370e-01 0.000000e+00  
 2.108865e+00 4.139110e-01 0.000000e+00  
 2.056350e+00 4.355339e-01 0.000000e+00  
 2.064624e+00 4.970450e-01 0.000000e+00  
 2.005519e+00 5.005519e-01 0.000000e+00  
 2.063934e+00 3.523202e-01 0.000000e+00  
 2.053851e+00 2.966847e-01 0.000000e+00  
 2.087140e+00 -3.770531e-01 0.000000e+00  
 2.081149e+00 -3.510642e-01 0.000000e+00  
 2.105045e+00 -3.188940e-01 0.000000e+00  
 2.095240e+00 -2.864039e-01 0.000000e+00  
 2.050438e+00 -4.061682e-01 0.000000e+00  
 2.050376e+00 -4.310376e-01 0.000000e+00  
 2.087996e+00 -4.543884e-01 0.000000e+00  
 2.094521e+00 -4.926922e-01 0.000000e+00  
 2.030425e+00 4.217347e-01 0.000000e+00  
 2.028147e+00 3.756666e-01 0.000000e+00  
 1.995780e+00 4.396594e-01 0.000000e+00  
 1.991530e+00 4.991530e-01 0.000000e+00  
 1.991707e+00 3.564961e-01 0.000000e+00  
 1.993378e+00 3.014518e-01 0.000000e+00  
 2.009129e+00 -3.742917e-01 0.000000e+00  
 2.035807e+00 -3.353500e-01 0.000000e+00  
 2.027175e+00 -3.009850e-01 0.000000e+00  
 1.993710e+00 -3.773415e-01 0.000000e+00  
 1.978939e+00 -4.295831e-01 0.000000e+00  
 2.015567e+00 -4.544503e-01 0.000000e+00  
 2.009698e+00 -5.009698e-01 0.000000e+00  
 1.956656e+00 3.742049e-01 0.000000e+00  
 1.952486e+00 4.179994e-01 0.000000e+00  
 1.931778e+00 4.306181e-01 0.000000e+00  
 1.924075e+00 4.924075e-01 0.000000e+00  
 1.899731e+00 4.899731e-01 0.000000e+00  
 1.922010e+00 3.501372e-01 0.000000e+00  
 1.929130e+00 2.926560e-01 0.000000e+00  
 1.884510e+00 2.776879e-01 0.000000e+00  
 1.966428e+00 -3.590023e-01 0.000000e+00  
 1.970613e+00 -2.999059e-01 0.000000e+00  
 1.927180e+00 -3.695914e-01 0.000000e+00  
 1.921709e+00 -4.198821e-01 0.000000e+00  
 1.947008e+00 -4.398225e-01 0.000000e+00  
 1.939261e+00 -4.939261e-01 0.000000e+00  
 1.900970e+00 -4.900970e-01 0.000000e+00  
 1.863627e+00 4.817312e-01 0.000000e+00  
 1.857504e+00 4.857504e-01 0.000000e+00  
 1.875782e+00 4.120927e-01 0.000000e+00  
 1.881040e+00 3.652096e-01 0.000000e+00  
 1.867389e+00 4.187040e-01 0.000000e+00  
 1.846756e+00 3.356296e-01 0.000000e+00  
 1.841219e+00 3.356799e-01 0.000000e+00  
 1.798462e+00 2.892637e-01 0.000000e+00  
 1.825737e+00 2.463600e-01 0.000000e+00  
 1.899384e+00 -3.491792e-01 0.000000e+00  
 1.919804e+00 -2.905321e-01 0.000000e+00  
 1.880892e+00 -3.518505e-01 0.000000e+00  
 1.876739e+00 -4.306112e-01 0.000000e+00  
 1.851243e+00 -4.047870e-01 0.000000e+00  
 1.867722e+00 -4.834780e-01 0.000000e+00  
 1.863932e+00 -4.863932e-01 0.000000e+00  
 1.808054e+00 4.137391e-01 0.000000e+00  
 1.799027e+00 4.799027e-01 0.000000e+00  
 1.794889e+00 3.988640e-01 0.000000e+00  
 1.796421e+00 3.742445e-01 0.000000e+00  
 1.753060e+00 3.346294e-01 0.000000e+00  
 1.772693e+00 2.938047e-01 0.000000e+00  
 1.736281e+00 2.542250e-01 0.000000e+00  
 1.778041e+00 2.046183e-01 0.000000e+00  
 1.843884e+00 -3.231786e-01 0.000000e+00  
 1.861766e+00 -2.683108e-01 0.000000e+00  
 1.825611e+00 -4.036870e-01 0.000000e+00  
 1.803682e+00 -3.342658e-01 0.000000e+00  
 1.802221e+00 -4.203274e-01 0.000000e+00  
 1.801418e+00 -4.801418e-01 0.000000e+00  
 1.742209e+00 4.157675e-01 0.000000e+00  
 1.735055e+00 4.735055e-01 0.000000e+00  
 1.746985e+00 1.633359e-01 0.000000e+00  
 1.715290e+00 1.010860e-01 0.000000e+00  
 1.724297e+00 3.425728e-01 0.000000e+00  
 1.708783e+00 3.885969e-01 0.000000e+00  
 1.687789e+00 3.093703e-01 0.000000e+00  
 1.715880e+00 2.542443e-01 0.000000e+00  
 1.689467e+00 2.276608e-01 0.000000e+00  
 1.696156e+00 1.855095e-01 0.000000e+00  
 1.698900e+00 2.866301e-02 0.000000e+00  
 1.821979e+00 -2.434423e-01 0.000000e+00  
 1.778198e+00 -2.037700e-01 0.000000e+00  
 1.700705e+00 -3.910173e-02 0.000000e+00  
 1.717508e+00 -1.056409e-01 0.000000e+00  
 1.746132e+00 -1.619338e-01 0.000000e+00  
 1.796111e+00 -3.315077e-01 0.000000e+00  
 1.780121e+00 -2.903988e-01 0.000000e+00  
 1.756332e+00 -3.574335e-01 0.000000e+00  
 1.759585e+00 -4.056411e-01 0.000000e+00  
 1.731624e+00 -4.235690e-01 0.000000e+00  
 1.726455e+00 -4.726455e-01 0.000000e+00  
 1.675862e+00 3.986826e-01 0.000000e+00  
 1.672663e+00 4.672663e-01 0.000000e+00  
 1.662392e+00 3.483107e-02 0.000000e+00  
 1.658036e+00 1.542573e-01 0.000000e+00  
 1.671243e+00 1.133827e-01 0.000000e+00  
 1.642903e+00 8.406090e-02 0.000000e+00  
 1.631270e+00 1.633784e-01 0.000000e+00  
 1.655752e+00 3.885845e-01 0.000000e+00  
 1.655811e+00 3.132971e-01 0.000000e+00  
 1.641996e+00 3.340595e-01 0.000000e+00  
 1.639762e+00 2.382037e-01 0.000000e+00  
 1.628436e+00 2.668286e-01 0.000000e+00  
 1.614574e+00 2.015926e-01 0.000000e+00  
 1.656801e+00 -4.663923e-02 0.000000e+00  
 1.627379e+00 -2.214916e-02 0.000000e+00  
 1.628968e+00 9.138894e-03 0.000000e+00  
 1.741496e+00 -2.766600e-01 0.000000e+00  
 1.731766e+00 -2.481045e-01 0.000000e+00  
 1.698982e+00 -2.323631e-01 0.000000e+00  
 1.694228e+00 -1.886651e-01 0.000000e+00  
 1.668005e+00 -1.718111e-01 0.000000e+00  
 1.641192e+00 -1.008250e-01 0.000000e+00  
 1.671315e+00 -1.212685e-01 0.000000e+00  
 1.703292e+00 -3.223992e-01 0.000000e+00  
 1.711733e+00 -3.409582e-01 0.000000e+00  
 1.685368e+00 -3.952554e-01 0.000000e+00  
 1.666109e+00 -4.007515e-01 0.000000e+00  
 1.654351e+00 -4.654351e-01 0.000000e+00  
 1.618693e+00 -1.059174e-01 0.000000e+00  
 1.609004e+00 4.087232e-01 0.000000e+00  
 1.604402e+00 4.604402e-01 0.000000e+00  
 1.605421e+00 8.736853e-02 0.000000e+00  
 1.583140e+00 3.891805e-02 0.000000e+00  
 1.579076e+00 1.221784e-01 0.000000e+00  
 1.571081e+00 2.058483e-01 0.000000e+00  
[...]
 POINT_DATA 803 
 VECTORS Displacement float 
 -1.708529e-08 3.916617e-07 0.000000e+00  
 -8.451701e-08 3.965950e-07 0.000000e+00  
 -1.596970e-07 4.085109e-07 0.000000e+00  
 -6.633452e-08 3.192506e-07 0.000000e+00  
 5.233475e-08 3.937462e-07 0.000000e+00  
 -4.286739e-08 2.946434e-07 0.000000e+00  
 -1.209667e-08 3.159461e-07 0.000000e+00  
 1.038464e-08 2.972352e-07 0.000000e+00  
 4.348599e-08 3.278091e-07 0.000000e+00  
 -2.679708e-08 1.950848e-07 0.000000e+00  
 -2.510009e-07 4.245762e-07 0.000000e+00  
 -1.139647e-07 3.143666e-07 0.000000e+00  
 -1.927022e-07 3.419936e-07 0.000000e+00  
 -1.210740e-07 3.224216e-07 0.000000e+00  
 -7.220839e-08 2.104734e-07 0.000000e+00  
 -3.416473e-08 1.658358e-07 0.000000e+00  
 0.000000e+00 0.000000e+00 0.000000e+00  
 1.268939e-07 4.020586e-07 0.000000e+00  
 7.411478e-08 3.068093e-07 0.000000e+00  
 1.112798e-07 3.497860e-07 0.000000e+00  
 6.673209e-08 2.638142e-07 0.000000e+00  
 1.064715e-08 1.903498e-07 0.000000e+00  
 5.717656e-10 1.607252e-07 0.000000e+00  
 2.825794e-08 1.835836e-07 0.000000e+00  
 0.000000e+00 0.000000e+00 0.000000e+00  
 -3.670823e-07 4.415741e-07 0.000000e+00  
 -1.983764e-07 3.267216e-07 0.000000e+00  
 -2.889718e-07 3.622276e-07 0.000000e+00  
 -1.291493e-07 2.243279e-07 0.000000e+00  
 -7.691288e-08 1.782325e-07 0.000000e+00  
 0.000000e+00 0.000000e+00 0.000000e+00  
 1.648879e-07 3.431825e-07 0.000000e+00  
 2.209495e-07 4.183607e-07 0.000000e+00  
 3.042989e-07 4.318684e-07 0.000000e+00  
 1.595622e-07 3.238009e-07 0.000000e+00  
 9.594454e-08 2.394436e-07 0.000000e+00  
 7.534252e-08 1.852595e-07 0.000000e+00  
 2.183633e-08 9.779882e-08 0.000000e+00  
 0.000000e+00 0.000000e+00 0.000000e+00  
 4.262301e-07 4.462517e-07 0.000000e+00  
 -5.137894e-07 4.525261e-07 0.000000e+00  
 -3.094084e-07 3.387989e-07 0.000000e+00  
 -4.153480e-07 3.747172e-07 0.000000e+00  
 -2.037311e-07 2.357071e-07 0.000000e+00  
 -1.311104e-07 1.896448e-07 0.000000e+00  
 0.000000e+00 0.000000e+00 0.000000e+00  
 2.185569e-07 3.293634e-07 0.000000e+00  
 2.359885e-07 3.425215e-07 0.000000e+00  
 3.329240e-07 3.633072e-07 0.000000e+00  
 3.378152e-07 3.565646e-07 0.000000e+00  
 1.417054e-07 2.182249e-07 0.000000e+00  
 7.761549e-08 1.599015e-07 0.000000e+00  
 0.000000e+00 0.000000e+00 0.000000e+00  
 4.751586e-07 3.830512e-07 0.000000e+00  
 5.778508e-07 4.509821e-07 0.000000e+00  
 -4.523126e-07 3.584129e-07 0.000000e+00  
 -6.397632e-07 4.000730e-07 0.000000e+00  
 -7.242739e-07 4.447609e-07 0.000000e+00  
 -3.556632e-07 2.765395e-07 0.000000e+00  
 -2.787035e-07 2.264307e-07 0.000000e+00  
 -2.025709e-07 1.951962e-07 0.000000e+00  
 0.000000e+00 0.000000e+00 0.000000e+00  
 4.902999e-07 3.583895e-07 0.000000e+00  
 4.242325e-07 3.110729e-07 0.000000e+00  
 2.205128e-07 2.376930e-07 0.000000e+00  
 1.544757e-07 1.965981e-07 0.000000e+00  
 2.454242e-07 2.280894e-07 0.000000e+00  
 0.000000e+00 0.000000e+00 0.000000e+00  
 7.195733e-07 3.516660e-07 0.000000e+00  
 6.814477e-07 3.901231e-07 0.000000e+00  
 7.781082e-07 4.370420e-07 0.000000e+00  
 -5.653929e-07 3.077009e-07 0.000000e+00  
 -6.743742e-07 3.427789e-07 0.000000e+00  
 -8.155095e-07 3.484699e-07 0.000000e+00  
 -9.944669e-07 3.978834e-07 0.000000e+00  
 -1.286761e-06 3.070639e-07 0.000000e+00  
 -4.513026e-07 2.197600e-07 0.000000e+00  
 -1.903544e-07 1.258293e-07 0.000000e+00  
 0.000000e+00 0.000000e+00 0.000000e+00  
 4.536880e-07 2.651497e-07 0.000000e+00  
 5.906533e-07 2.987459e-07 0.000000e+00  
 3.376963e-07 2.072486e-07 0.000000e+00  
 1.480114e-07 1.308647e-07 0.000000e+00  
 0.000000e+00 0.000000e+00 0.000000e+00  
 7.458850e-07 2.578817e-07 0.000000e+00  
 9.730521e-07 2.978190e-07 0.000000e+00  
 9.558667e-07 3.557101e-07 0.000000e+00  
 1.053059e-06 3.830093e-07 0.000000e+00  
 -5.878188e-07 2.163206e-07 0.000000e+00  
 -9.483137e-07 2.831969e-07 0.000000e+00  
 -1.013071e-06 2.757673e-07 0.000000e+00  
 -1.254432e-06 1.728345e-07 0.000000e+00  
 -1.608434e-06 1.666333e-07 0.000000e+00  
 -5.276040e-07 1.780654e-07 0.000000e+00  
 0.000000e+00 0.000000e+00 0.000000e+00  
 6.967069e-07 2.411983e-07 0.000000e+00  
 5.264128e-07 1.932308e-07 0.000000e+00  
 2.534500e-07 1.406686e-07 0.000000e+00  
 0.000000e+00 0.000000e+00 0.000000e+00  
 1.039131e-06 1.865619e-07 0.000000e+00  
 1.243432e-06 1.944888e-07 0.000000e+00  
 1.238780e-06 2.529074e-07 0.000000e+00  
 1.397691e-06 2.641779e-07 0.000000e+00  
 -8.409618e-07 1.496284e-07 0.000000e+00  
 -1.250713e-06 1.757834e-07 0.000000e+00  
 -1.622579e-06 1.367051e-08 0.000000e+00  
 -1.976725e-06 -4.896853e-08 0.000000e+00  
 -2.288544e-06 -2.712085e-07 0.000000e+00  
 -7.623808e-07 1.061193e-07 0.000000e+00  
 0.000000e+00 0.000000e+00 0.000000e+00  
 9.716437e-07 1.440613e-07 0.000000e+00  
 7.065585e-07 1.227149e-07 0.000000e+00  
 3.696968e-07 1.132355e-07 0.000000e+00  
 0.000000e+00 0.000000e+00 0.000000e+00  
 1.380452e-06 4.450670e-08 0.000000e+00  
 1.609714e-06 1.161191e-08 0.000000e+00  
 1.613427e-06 8.131880e-08 0.000000e+00  
 1.798835e-06 6.117129e-08 0.000000e+00  
 -1.636761e-06 -2.550134e-08 0.000000e+00  
 -1.142099e-06 2.761394e-08 0.000000e+00  
 -2.004131e-06 -1.880517e-07 0.000000e+00  
 -2.425272e-06 -3.403547e-07 0.000000e+00  
 -1.029177e-06 -2.250033e-08 0.000000e+00  
 0.000000e+00 0.000000e+00 0.000000e+00  
 1.194710e-06 -1.218211e-08 0.000000e+00  
 5.633592e-07 6.387866e-08 0.000000e+00  
 0.000000e+00 0.000000e+00 0.000000e+00  
 1.329364e-06 -6.209910e-08 0.000000e+00  
 2.028504e-06 -2.341956e-07 0.000000e+00  
 1.997922e-06 -1.519091e-07 0.000000e+00  
 2.296094e-06 -2.628529e-07 0.000000e+00  
 -1.506407e-06 -1.669661e-07 0.000000e+00  
 -2.122168e-06 -3.156292e-07 0.000000e+00  
 -2.439311e-06 -4.694706e-07 0.000000e+00  
 -2.967291e-06 -7.082659e-07 0.000000e+00  
 -3.110180e-06 -8.658463e-07 0.000000e+00  
 -1.368325e-06 -2.176504e-07 0.000000e+00  
 0.000000e+00 0.000000e+00 0.000000e+00  
 0.000000e+00 0.000000e+00 0.000000e+00  
 1.205816e-06 -9.507374e-08 0.000000e+00  
 0.000000e+00 0.000000e+00 0.000000e+00  
 1.660338e-06 -2.711744e-07 0.000000e+00  
 2.412725e-06 -4.697372e-07 0.000000e+00  
 2.392753e-06 -4.142648e-07 0.000000e+00  
 2.810660e-06 -6.101597e-07 0.000000e+00  
 3.115843e-06 -8.439312e-07 0.000000e+00  
 -3.632480e-06 -1.098646e-06 0.000000e+00  
 -3.755067e-06 -1.176011e-06 0.000000e+00  
 -2.812643e-06 -7.342558e-07 0.000000e+00  
 -2.045804e-06 -5.045441e-07 0.000000e+00  
 -3.005152e-06 -8.155762e-07 0.000000e+00  
 -1.904112e-06 -5.936724e-07 0.000000e+00  
 -1.942834e-06 -6.313260e-07 0.000000e+00  
 -1.564708e-06 -6.993938e-07 0.000000e+00  
 0.000000e+00 0.000000e+00 0.000000e+00  
 1.565913e-06 -3.205127e-07 0.000000e+00  
 0.000000e+00 0.000000e+00 0.000000e+00  
 1.791680e-06 -4.393106e-07 0.000000e+00  
 3.017557e-06 -7.935875e-07 0.000000e+00  
 3.000755e-06 -8.942981e-07 0.000000e+00  
 3.591012e-06 -1.054384e-06 0.000000e+00  
 3.644296e-06 -1.107699e-06 0.000000e+00  
 -3.715158e-06 -1.356811e-06 0.000000e+00  
 -4.542627e-06 -1.753160e-06 0.000000e+00  
 -3.684631e-06 -1.414713e-06 0.000000e+00  
 -3.283341e-06 -1.276430e-06 0.000000e+00  
 -3.210688e-06 -1.561943e-06 0.000000e+00  
 -2.075924e-06 -1.024428e-06 0.000000e+00  
 -1.878833e-06 -1.186815e-06 0.000000e+00  
 0.000000e+00 0.000000e+00 0.000000e+00  
 1.653534e-06 -5.240562e-07 0.000000e+00  
 0.000000e+00 0.000000e+00 0.000000e+00  
 3.325569e-06 -1.125413e-06 0.000000e+00  
 2.451492e-06 -9.625442e-07 0.000000e+00  
 3.882383e-06 -1.444299e-06 0.000000e+00  
 4.506361e-06 -1.726586e-06 0.000000e+00  
 -4.738413e-06 -2.165992e-06 0.000000e+00  
 -5.555765e-06 -2.556946e-06 0.000000e+00  
 0.000000e+00 0.000000e+00 0.000000e+00  
 0.000000e+00 0.000000e+00 0.000000e+00  
 -3.818252e-06 -2.001726e-06 0.000000e+00  
 -4.876577e-06 -2.502257e-06 0.000000e+00  
 -3.780425e-06 -2.356601e-06 0.000000e+00  
 -2.222836e-06 -1.486987e-06 0.000000e+00  
 -2.148378e-06 -1.711085e-06 0.000000e+00  
 -1.285824e-06 -1.218934e-06 0.000000e+00  
 0.000000e+00 0.000000e+00 0.000000e+00  
 0.000000e+00 0.000000e+00 0.000000e+00  
 0.000000e+00 0.000000e+00 0.000000e+00  
 0.000000e+00 0.000000e+00 0.000000e+00  
 0.000000e+00 0.000000e+00 0.000000e+00  
 0.000000e+00 0.000000e+00 0.000000e+00  
 2.493492e-06 -1.035835e-06 0.000000e+00  
 1.877705e-06 -9.257571e-07 0.000000e+00  
 3.568182e-06 -1.660786e-06 0.000000e+00  
 4.313359e-06 -1.893054e-06 0.000000e+00  
 5.017245e-06 -2.362881e-06 0.000000e+00  
 5.694060e-06 -2.684102e-06 0.000000e+00  
 -5.610607e-06 -3.088924e-06 0.000000e+00  
 -6.660074e-06 -3.526702e-06 0.000000e+00  
 -1.789119e-07 -9.489323e-07 0.000000e+00  
 -1.414632e-06 -1.715062e-06 0.000000e+00  
 -7.126128e-07 -1.124274e-06 0.000000e+00  
 -7.149931e-07 -1.613671e-06 0.000000e+00  
 -1.938779e-06 -2.380057e-06 0.000000e+00  
 -5.781382e-06 -3.390196e-06 0.000000e+00  
 -4.379099e-06 -2.932081e-06 0.000000e+00  
 -5.013058e-06 -3.323804e-06 0.000000e+00  
 -3.150592e-06 -2.737419e-06 0.000000e+00  
 -3.892101e-06 -3.167025e-06 0.000000e+00  
 -2.828112e-06 -3.023831e-06 0.000000e+00  
 2.885072e-07 -1.124563e-06 0.000000e+00  
 2.112267e-07 -1.806055e-06 0.000000e+00  
 -7.287597e-08 -1.754508e-06 0.000000e+00  
 2.237510e-06 -1.296233e-06 0.000000e+00  
 1.826645e-06 -1.201323e-06 0.000000e+00  
 2.083021e-06 -1.585676e-06 0.000000e+00  
 1.373173e-06 -1.290975e-06 0.000000e+00  
 1.527249e-06 -1.659495e-06 0.000000e+00  
 9.076779e-07 -1.742311e-06 0.000000e+00  
 7.962585e-07 -1.188405e-06 0.000000e+00  
 3.776472e-06 -2.196843e-06 0.000000e+00  
 3.984746e-06 -2.185095e-06 0.000000e+00  
 5.373100e-06 -2.924312e-06 0.000000e+00  
 5.805750e-06 -3.278163e-06 0.000000e+00  
 6.990505e-06 -3.850042e-06 0.000000e+00  
 1.214431e-06 -2.332989e-06 0.000000e+00  
 -6.985585e-06 -4.418634e-06 0.000000e+00  
 -7.948522e-06 -4.809436e-06 0.000000e+00  
 -1.067665e-06 -2.577395e-06 0.000000e+00  
 -5.358987e-07 -3.016428e-06 0.000000e+00  
 -1.845612e-06 -3.399983e-06 0.000000e+00  
 -3.503432e-06 -4.069182e-06 0.000000e+00  
 -3.076130e-06 -4.440129e-06 0.000000e+00  
 -6.046395e-06 -4.478544e-06 0.000000e+00  
 -7.099873e-06 -4.971246e-06 0.000000e+00  
 -5.811144e-06 -4.810292e-06 0.000000e+00  
 -4.923044e-06 -4.370343e-06 0.000000e+00  
 -4.524863e-06 -4.722091e-06 0.000000e+00  
 5.976566e-07 -3.000774e-06 0.000000e+00  
 1.093957e-06 -3.151964e-06 0.000000e+00  
 -5.097756e-07 -3.534162e-06 0.000000e+00  
 2.932173e-07 -3.880689e-06 0.000000e+00  
 3.262133e-06 -2.547552e-06 0.000000e+00  
 4.044359e-06 -2.611699e-06 0.000000e+00  
 2.456094e-06 -2.740823e-06 0.000000e+00  
 3.408539e-06 -2.820640e-06 0.000000e+00  
 2.726471e-06 -2.927634e-06 0.000000e+00  
 2.083489e-06 -3.064245e-06 0.000000e+00  
 5.236054e-06 -3.546307e-06 0.000000e+00  
 6.039762e-06 -3.771142e-06 0.000000e+00  
 7.083680e-06 -4.666890e-06 0.000000e+00  
 8.188093e-06 -5.073456e-06 0.000000e+00  
 2.563810e-06 -4.193317e-06 0.000000e+00  
 1.800980e-06 -4.412195e-06 0.000000e+00  
 -8.013815e-06 -5.878971e-06 0.000000e+00  
 -9.318916e-06 -6.371325e-06 0.000000e+00  
 -1.036329e-06 -4.609544e-06 0.000000e+00  
 -1.751369e-06 -4.679650e-06 0.000000e+00  
 -3.482873e-06 -5.535384e-06 0.000000e+00  
 -2.527194e-06 -5.748225e-06 0.000000e+00  
 -5.201745e-06 -5.914486e-06 0.000000e+00  
 -4.156562e-06 -6.156024e-06 0.000000e+00  
 -6.923262e-06 -6.178828e-06 0.000000e+00  
 -8.133087e-06 -6.457976e-06 0.000000e+00  
 -6.910276e-06 -6.413071e-06 0.000000e+00  
 -5.797415e-06 -6.387814e-06 0.000000e+00  
 -7.519759e-07 -5.766349e-06 0.000000e+00  
 1.765063e-06 -5.088923e-06 0.000000e+00  
 5.298780e-07 -4.860359e-06 0.000000e+00  
 3.020461e-07 -5.555660e-06 0.000000e+00  
 5.418369e-06 -4.201232e-06 0.000000e+00  
 4.646016e-06 -3.934099e-06 0.000000e+00  
 3.379910e-06 -4.889921e-06 0.000000e+00  
 4.571001e-06 -4.681419e-06 0.000000e+00  
 3.908144e-06 -4.366136e-06 0.000000e+00  
 6.333841e-06 -5.033349e-06 0.000000e+00  
 7.358606e-06 -5.367484e-06 0.000000e+00  
 8.259332e-06 -6.200345e-06 0.000000e+00  
 9.573466e-06 -6.695780e-06 0.000000e+00  
 2.038326e-06 -5.669952e-06 0.000000e+00  
 3.747787e-06 -5.719854e-06 0.000000e+00  
 3.105508e-06 -6.351016e-06 0.000000e+00  
 -9.348187e-06 -7.737148e-06 0.000000e+00  
 -1.072314e-05 -8.224068e-06 0.000000e+00  
 -1.046970e-06 -6.519157e-06 0.000000e+00  
 -7.285176e-07 -7.686713e-06 0.000000e+00  
 -2.563216e-06 -7.009265e-06 0.000000e+00  
 -4.588987e-06 -7.400551e-06 0.000000e+00  
 -3.999357e-06 -7.904065e-06 0.000000e+00  
 -5.904761e-06 -8.279282e-06 0.000000e+00  
 -6.440451e-06 -7.902093e-06 0.000000e+00  
 -8.262015e-06 -8.170200e-06 0.000000e+00  
 -9.305073e-06 -8.563994e-06 0.000000e+00  
 -7.864691e-06 -8.722693e-06 0.000000e+00  
 8.707058e-07 -7.079453e-06 0.000000e+00  
 3.835477e-07 -7.897925e-06 0.000000e+00  
 1.603102e-06 -7.123261e-06 0.000000e+00  
 5.407123e-06 -5.596451e-06 0.000000e+00  
 6.530766e-06 -5.884097e-06 0.000000e+00  
 4.745666e-06 -6.529315e-06 0.000000e+00  
 5.511175e-06 -6.403047e-06 0.000000e+00  
 7.483573e-06 -6.839153e-06 0.000000e+00  
 8.568515e-06 -7.222039e-06 0.000000e+00  
 9.302895e-06 -7.937033e-06 0.000000e+00  
 1.088248e-05 -8.459518e-06 0.000000e+00  
 2.486386e-06 -8.275964e-06 0.000000e+00  
 3.581451e-06 -7.754264e-06 0.000000e+00  
 4.357644e-06 -8.336144e-06 0.000000e+00  
 5.144191e-06 -7.955750e-06 0.000000e+00  
 -1.047890e-05 -9.882852e-06 0.000000e+00  
 -1.208687e-05 -1.030899e-05 0.000000e+00  
 6.642241e-07 -9.299782e-06 0.000000e+00  
 -8.580719e-07 -1.039522e-05 0.000000e+00  
 -1.524316e-06 -9.018655e-06 0.000000e+00  
 -2.341061e-06 -8.981751e-06 0.000000e+00  
 -3.233910e-06 -9.902991e-06 0.000000e+00  
 -4.370584e-06 -9.375711e-06 0.000000e+00  
 -6.343627e-06 -9.666608e-06 0.000000e+00  
 -5.372330e-06 -1.015951e-05 0.000000e+00  
 -8.556452e-06 -1.010458e-05 0.000000e+00  
 -7.515129e-06 -1.055432e-05 0.000000e+00  
 -9.427711e-06 -1.074465e-05 0.000000e+00  
 -1.052281e-05 -1.072275e-05 0.000000e+00  
 1.443673e-06 -9.898620e-06 0.000000e+00  
 2.499043e-06 -9.256392e-06 0.000000e+00  
 7.463991e-06 -8.041690e-06 0.000000e+00  
 6.457239e-06 -8.874215e-06 0.000000e+00  
 7.063304e-06 -7.941772e-06 0.000000e+00  
 8.533521e-06 -9.034930e-06 0.000000e+00  
 9.731917e-06 -9.186523e-06 0.000000e+00  
 1.061119e-05 -1.000174e-05 0.000000e+00  
 1.211448e-05 -1.036021e-05 0.000000e+00  
 4.774042e-06 -9.854388e-06 0.000000e+00  
 3.775160e-06 -1.051638e-05 0.000000e+00  
 6.884241e-06 -9.826968e-06 0.000000e+00  
 5.945551e-06 -1.067685e-05 0.000000e+00  
 -1.223358e-05 -1.255777e-05 0.000000e+00  
 -1.356891e-05 -1.292083e-05 0.000000e+00  
 1.557551e-06 -1.141594e-05 0.000000e+00  
 -9.288976e-07 -1.085345e-05 0.000000e+00  
 1.000280e-07 -1.223170e-05 0.000000e+00  
 -2.382046e-06 -1.194128e-05 0.000000e+00  
 -3.356241e-06 -1.120603e-05 0.000000e+00  
 -4.829033e-06 -1.233526e-05 0.000000e+00  
 -5.724241e-06 -1.165240e-05 0.000000e+00  
 -7.236341e-06 -1.265306e-05 0.000000e+00  
 -8.000410e-06 -1.212045e-05 0.000000e+00  
 -9.766506e-06 -1.320565e-05 0.000000e+00  
 -1.023383e-05 -1.287982e-05 0.000000e+00  
 -1.180399e-05 -1.355721e-05 0.000000e+00  
 3.861338e-06 -1.159040e-05 0.000000e+00  
 2.588347e-06 -1.238802e-05 0.000000e+00  
 2.657613e-06 -1.358160e-05 0.000000e+00  
 8.312808e-06 -1.087527e-05 0.000000e+00  
 8.962938e-06 -1.058437e-05 0.000000e+00  
 1.086896e-05 -1.181589e-05 0.000000e+00  
 1.112527e-05 -1.165246e-05 0.000000e+00  
 1.348897e-05 -1.280825e-05 0.000000e+00  
 5.223408e-06 -1.290995e-05 0.000000e+00  
 6.506228e-06 -1.220889e-05 0.000000e+00  
 7.307664e-06 -1.277214e-05 0.000000e+00  
 8.654707e-06 -1.220072e-05 0.000000e+00  
 1.431282e-05 -1.438756e-05 0.000000e+00  
 -1.302773e-05 -1.533775e-05 0.000000e+00  
 -1.505836e-05 -1.601407e-05 0.000000e+00  
 1.059040e-06 -1.456332e-05 0.000000e+00  
 -1.036457e-08 -1.343018e-05 0.000000e+00  
 -2.464853e-06 -1.342926e-05 0.000000e+00  
 -1.457674e-06 -1.422759e-05 0.000000e+00  
 -5.013855e-06 -1.372736e-05 0.000000e+00  
 -4.055742e-06 -1.455171e-05 0.000000e+00  
 -6.757216e-06 -1.492063e-05 0.000000e+00  
 -7.621780e-06 -1.441162e-05 0.000000e+00  
 -9.117268e-06 -1.538375e-05 0.000000e+00  
 -1.013788e-05 -1.477071e-05 0.000000e+00  
 -4.178362e-06 -1.580546e-05 0.000000e+00  
 -1.240044e-05 -1.653487e-05 0.000000e+00  
 1.094134e-06 -1.582420e-05 0.000000e+00  
 5.322185e-06 -1.424802e-05 0.000000e+00  
 3.820262e-06 -1.483401e-05 0.000000e+00  
 3.774637e-06 -1.616975e-05 0.000000e+00  
 2.221191e-06 -1.688021e-05 0.000000e+00  
 6.434660e-06 -1.539753e-05 0.000000e+00  
 1.133115e-05 -1.344472e-05 0.000000e+00  
 1.009001e-05 -1.357404e-05 0.000000e+00  
 1.226331e-05 -1.429025e-05 0.000000e+00  
 7.996296e-06 -1.534786e-05 0.000000e+00  
 8.189185e-06 -1.480306e-05 0.000000e+00  
 1.013839e-05 -1.498174e-05 0.000000e+00  
 1.310673e-05 -1.643155e-05 0.000000e+00  
 1.552445e-05 -1.711920e-05 0.000000e+00  
 -1.447169e-05 -1.877583e-05 0.000000e+00  
 -1.634308e-05 -1.909794e-05 0.000000e+00  
 -6.213366e-07 -1.700564e-05 0.000000e+00  
 -1.597667e-06 -1.626510e-05 0.000000e+00  
 -3.021517e-06 -1.692697e-05 0.000000e+00  
 -6.872344e-06 -1.689740e-05 0.000000e+00  
 -6.075114e-06 -1.729954e-05 0.000000e+00  
 -8.695526e-06 -1.808019e-05 0.000000e+00  
 -9.744747e-06 -1.746732e-05 0.000000e+00  
 -1.119231e-05 -1.829198e-05 0.000000e+00  
 -3.589309e-06 -1.897189e-05 0.000000e+00  
 -5.847671e-06 -1.896549e-05 0.000000e+00  
 -1.214016e-05 -1.999258e-05 0.000000e+00  
 -1.409982e-05 -2.061320e-05 0.000000e+00  
 -4.549540e-07 -1.852699e-05 0.000000e+00  
 1.464282e-06 -1.942677e-05 0.000000e+00  
 2.249543e-06 -1.874016e-05 0.000000e+00  
 6.278325e-06 -1.768783e-05 0.000000e+00  
 4.262131e-06 -1.968175e-05 0.000000e+00  
 5.098421e-06 -1.769083e-05 0.000000e+00  
 7.014954e-06 -1.841555e-05 0.000000e+00  
 9.244193e-06 -1.759205e-05 0.000000e+00  
 8.960682e-06 -1.838439e-05 0.000000e+00  
 1.123507e-05 -1.638193e-05 0.000000e+00  
 1.292882e-05 -1.670254e-05 0.000000e+00  
 1.095301e-05 -1.771666e-05 0.000000e+00  
 1.424579e-05 -1.921858e-05 0.000000e+00  
 1.658601e-05 -1.978039e-05 0.000000e+00  
 -1.534418e-05 -2.226135e-05 0.000000e+00  
 -1.768360e-05 -2.283013e-05 0.000000e+00  
 -3.187501e-06 -1.981525e-05 0.000000e+00  
 -1.645560e-06 -2.004037e-05 0.000000e+00  
 -9.065085e-06 -2.063775e-05 0.000000e+00  
 -6.710844e-06 -2.039984e-05 0.000000e+00  
 -1.153902e-05 -2.134031e-05 0.000000e+00  
 -9.270791e-06 -2.086374e-05 0.000000e+00  
 -4.306144e-06 -2.197746e-05 0.000000e+00  
 -6.198147e-06 -2.206124e-05 0.000000e+00  
 -1.287397e-05 -2.362315e-05 0.000000e+00  
 -1.484098e-05 -2.392839e-05 0.000000e+00  
 -9.975416e-07 -2.182663e-05 0.000000e+00  
 1.418507e-06 -2.193031e-05 0.000000e+00  
 4.683974e-06 -2.078082e-05 0.000000e+00  
 3.773153e-06 -2.229118e-05 0.000000e+00  
 6.597914e-06 -2.150456e-05 0.000000e+00  
 7.310243e-06 -2.094942e-05 0.000000e+00  
 1.014541e-05 -2.062131e-05 0.000000e+00  
 9.310570e-06 -2.175430e-05 0.000000e+00  
 1.166398e-05 -2.102751e-05 0.000000e+00  
 1.233640e-05 -1.964748e-05 0.000000e+00  
 1.383372e-05 -1.997570e-05 0.000000e+00  
 1.523787e-05 -2.224679e-05 0.000000e+00  
 1.767158e-05 -2.283253e-05 0.000000e+00  
 -1.645764e-05 -2.614642e-05 0.000000e+00  
 -1.888363e-05 -2.670748e-05 0.000000e+00  
 -1.237252e-05 -2.477844e-05 0.000000e+00  
 -3.475948e-06 -2.384823e-05 0.000000e+00  
 -1.919376e-06 -2.364076e-05 0.000000e+00  
 -9.493067e-06 -2.407211e-05 0.000000e+00  
 -7.318653e-06 -2.403621e-05 0.000000e+00  
 -1.014817e-05 -2.471641e-05 0.000000e+00  
 -4.293326e-06 -2.523755e-05 0.000000e+00  
 -6.812765e-06 -2.532650e-05 0.000000e+00  
 -1.400219e-05 -2.764073e-05 0.000000e+00  
 -1.554153e-05 -2.804450e-05 0.000000e+00  
 -5.828258e-07 -2.555541e-05 0.000000e+00  
 1.276876e-06 -2.458923e-05 0.000000e+00  
 2.900837e-06 -2.588817e-05 0.000000e+00  
 4.527194e-06 -2.449978e-05 0.000000e+00  
 7.068888e-06 -2.412779e-05 0.000000e+00  